 &FCI NORB=  4,NELEC=  4,MS2= 0,
  ORBSYM=1,1,1,1,
  ISYM=1,
  DENSITY=2,
 /
  0.1026864624807555E+01   1   1   1   1
  0.0000000000000000E+00   2   1   1   1
  0.0000000000000000E+00   2   1   2   1
  0.1000000000000069E-03   2   2   1   1
  0.0000000000000000E+00   2   2   2   1
  0.1026864624807555E+01   2   2   2   2
 -0.3164468353196583E+00   3   1   1   1
  0.0000000000000000E+00   3   1   2   1
 -0.2346495240953121E-10   3   1   2   2
  0.2275051584869046E+00   3   1   3   1
  0.0000000000000000E+00   3   2   1   1
  0.0000000000000000E+00   3   2   2   1
  0.0000000000000000E+00   3   2   2   2
  0.0000000000000000E+00   3   2   3   1
  0.0000000000000000E+00   3   2   3   2
  0.8575924296814214E+00   3   3   1   1
  0.0000000000000000E+00   3   3   2   1
  0.1000000910359038E-03   3   3   2   2
 -0.2551952962820141E+00   3   3   3   1
  0.0000000000000000E+00   3   3   3   2
  0.7654947272016055E+00   3   3   3   3
  0.0000000000000000E+00   4   1   1   1
  0.0000000000000000E+00   4   1   2   1
  0.0000000000000000E+00   4   1   2   2
  0.0000000000000000E+00   4   1   3   1
  0.0000000000000000E+00   4   1   3   2
  0.0000000000000000E+00   4   1   3   3
  0.0000000000000000E+00   4   1   4   1
 -0.2346495240953121E-10   4   2   1   1
  0.0000000000000000E+00   4   2   2   1
 -0.3164468353196583E+00   4   2   2   2
  0.5787582858798622E-10   4   2   3   1
  0.0000000000000000E+00   4   2   3   2
 -0.2480031433690502E-09   4   2   3   3
  0.0000000000000000E+00   4   2   4   1
  0.2275051584869046E+00   4   2   4   2
  0.0000000000000000E+00   4   3   1   1
  0.0000000000000000E+00   4   3   2   1
  0.0000000000000000E+00   4   3   2   2
  0.0000000000000000E+00   4   3   3   1
  0.0000000000000000E+00   4   3   3   2
  0.0000000000000000E+00   4   3   3   3
  0.0000000000000000E+00   4   3   4   1
  0.0000000000000000E+00   4   3   4   2
  0.0000000000000000E+00   4   3   4   3
  0.1000000910359038E-03   4   4   1   1
  0.0000000000000000E+00   4   4   2   1
  0.8575924296814214E+00   4   4   2   2
 -0.2480031436967846E-09   4   4   3   1
  0.0000000000000000E+00   4   4   3   2
  0.1000010532022967E-03   4   4   3   3
  0.0000000000000000E+00   4   4   4   1
 -0.2551952962820141E+00   4   4   4   2
  0.0000000000000000E+00   4   4   4   3
  0.7654947272016055E+00   4   4   4   4
 -0.1941212551025147E+01   1   1   0   0
  0.0000000000000000E+00   2   1   0   0
 -0.1941212551025147E+01   2   2   0   0
  0.3164468362602333E+00   3   1   0   0
  0.0000000000000000E+00   3   2   0   0
 -0.9043799687067633E-01   3   3   0   0
  0.0000000000000000E+00   4   1   0   0
  0.3164468362602333E+00   4   2   0   0
  0.0000000000000000E+00   4   3   0   0
 -0.9043799687067633E-01   4   4   0   0
  0.4000000000000000E-03   0   0   0   0
