 &FCI NORB= 10,NELEC=  8,MS2= 0,
  ORBSYM=1,1,1,1,1,1,2,2,3,3,
  ISYM=1,
  NSTATE=2,
 /
  0.8826001082615210E+00   1   1   1   1
  0.9344330056436282E-02   2   1   1   1
  0.1550500868561036E+00   2   1   2   1
  0.7811858544607652E+00   2   2   1   1
 -0.4723881708494991E-01   2   2   2   1
  0.7937386196447356E+00   2   2   2   2
 -0.1090413194061415E+00   3   1   1   1
 -0.2639683764666840E-01   3   1   2   1
 -0.6197485965883466E-01   3   1   2   2
  0.3596506665776698E-01   3   1   3   1
 -0.9565269073312094E-01   3   2   1   1
  0.2534639192238817E-01   3   2   2   1
 -0.8269448151026791E-01   3   2   2   2
  0.2532079552480002E-01   3   2   3   1
  0.4279370434638374E-01   3   2   3   2
  0.4003429259469110E+00   3   3   1   1
  0.4664954118131794E-01   3   3   2   1
  0.3884393819177634E+00   3   3   2   2
 -0.1393498079366470E-01   3   3   3   1
  0.1455025471442162E-01   3   3   3   2
  0.3673332080998613E+00   3   3   3   3
 -0.6640800746459455E-01   4   1   1   1
 -0.1500210777532549E-01   4   1   2   1
 -0.1786087619333298E-02   4   1   2   2
  0.3377219712137131E-01   4   1   3   1
  0.2488500059566996E-01   4   1   3   2
  0.1852587057190597E-02   4   1   3   3
  0.5397903138040819E-01   4   1   4   1
 -0.8441129398434410E-01   4   2   1   1
  0.8836278496459914E-01   4   2   2   1
 -0.7419544810986139E-01   4   2   2   2
  0.2402375156664353E-01   4   2   3   1
  0.6073547251340565E-01   4   2   3   2
  0.3271566040216983E-01   4   2   3   3
  0.4748196139854166E-01   4   2   4   1
  0.1347779086557266E+00   4   2   4   2
  0.1314821446950375E+00   4   3   1   1
  0.2095195573811298E-01   4   3   2   1
  0.1269798925274417E+00   4   3   2   2
 -0.1818928934010388E-01   4   3   3   1
 -0.9224825084081463E-02   4   3   3   2
  0.4643187866108187E-01   4   3   3   3
  0.3008297004051327E-02   4   3   4   1
  0.1387589129328997E-01   4   3   4   2
  0.5018702530478764E-01   4   3   4   3
  0.5913494259074487E+00   4   4   1   1
  0.1002140359152340E+00   4   4   2   1
  0.5954021316633374E+00   4   4   2   2
 -0.3121791623706308E-01   4   4   3   1
  0.1039521273854122E-01   4   4   3   2
  0.4201964786710988E+00   4   4   3   3
  0.4449678537576569E-01   4   4   4   1
  0.1167114790677627E+00   4   4   4   2
  0.1311442850652859E+00   4   4   4   3
  0.7126889289540486E+00   4   4   4   4
  0.1875314620391723E-01   5   1   1   1
 -0.4066850962418304E-01   5   1   2   1
  0.3655832947089960E-01   5   1   2   2
  0.1001392716935288E-01   5   1   3   1
  0.4171136372883555E-02   5   1   3   2
  0.3703315876265383E-02   5   1   3   3
  0.1382776925202216E-01   5   1   4   1
 -0.8870546810059799E-02   5   1   4   2
 -0.2271606225660083E-02   5   1   4   3
  0.5105708320713102E-02   5   1   4   4
  0.3777288995378345E-01   5   1   5   1
 -0.1864958296305581E+00   5   2   1   1
  0.2256495723208664E-01   5   2   2   1
 -0.1764603058746929E+00   5   2   2   2
  0.3808779881899287E-01   5   2   3   1
  0.3733312172072439E-01   5   2   3   2
 -0.3742060276102651E-01   5   2   3   3
  0.2085979884451134E-01   5   2   4   1
  0.5415736091807420E-01   5   2   4   2
 -0.3672508259020554E-01   5   2   4   3
 -0.8362178057614268E-01   5   2   4   4
 -0.3263044122018524E-01   5   2   5   1
  0.1364420126069931E+00   5   2   5   2
  0.6717572532612272E-01   5   3   1   1
  0.2386658765811714E-01   5   3   2   1
  0.4987839686766486E-01   5   3   2   2
 -0.1775271030526449E-01   5   3   3   1
 -0.5756449158436386E-02   5   3   3   2
  0.2704526938367180E-01   5   3   3   3
 -0.1332277437690604E-01   5   3   4   1
 -0.3796143416248666E-02   5   3   4   2
  0.1338997171297913E-01   5   3   4   3
  0.4494932875409959E-01   5   3   4   4
  0.4503755427146360E-02   5   3   5   1
 -0.4177435510808583E-01   5   3   5   2
  0.2327651591074711E-01   5   3   5   3
  0.9577140678947330E-01   5   4   1   1
 -0.1895266181419117E-02   5   4   2   1
  0.8211762522221348E-01   5   4   2   2
 -0.2346959634950166E-01   5   4   3   1
 -0.2100547433975575E-01   5   4   3   2
  0.1891251117746945E-01   5   4   3   3
 -0.1888247126100512E-01   5   4   4   1
 -0.3190758104462407E-01   5   4   4   2
  0.1749512941713091E-01   5   4   4   3
  0.3110132380333928E-01   5   4   4   4
  0.1042246385436682E-01   5   4   5   1
 -0.6610751193474577E-01   5   4   5   2
  0.2374795487051415E-01   5   4   5   3
  0.3686774046346962E-01   5   4   5   4
  0.6644591326232558E+00   5   5   1   1
 -0.9749133468389334E-01   5   5   2   1
  0.6815592846270242E+00   5   5   2   2
 -0.4758652742265898E-01   5   5   3   1
 -0.9498065117785166E-01   5   5   3   2
  0.3227495073718848E+00   5   5   3   3
 -0.1947706231109957E-01   5   5   4   1
 -0.1257457496492444E+00   5   5   4   2
  0.9046036252897982E-01   5   5   4   3
  0.4393658437262035E+00   5   5   4   4
  0.2058036085452464E-01   5   5   5   1
 -0.1272807922715520E+00   5   5   5   2
  0.1871518264710927E-01   5   5   5   3
  0.6033072824070834E-01   5   5   5   4
  0.6913466614566545E+00   5   5   5   5
 -0.1621696542879659E+00   6   1   1   1
  0.9190680131555171E-02   6   1   2   1
 -0.1305495419818009E+00   6   1   2   2
  0.4414423325917294E-01   6   1   3   1
  0.3848847935852077E-01   6   1   3   2
 -0.2737353798624227E-01   6   1   3   3
  0.3303435711218790E-01   6   1   4   1
  0.5351859714347341E-01   6   1   4   2
 -0.3605259918915120E-01   6   1   4   3
 -0.5585999775200360E-01   6   1   4   4
 -0.3346420815494383E-02   6   1   5   1
  0.9547771320737884E-01   6   1   5   2
 -0.2832558916330110E-01   6   1   5   3
 -0.4878190792743976E-01   6   1   5   4
 -0.1139211307012113E+00   6   1   5   5
  0.1057449048998914E+00   6   1   6   1
  0.1298154623707543E-01   6   2   1   1
 -0.2832060440219996E-01   6   2   2   1
  0.3066329892449087E-01   6   2   2   2
  0.9276827225350920E-02   6   2   3   1
  0.2295117535915331E-02   6   2   3   2
 -0.2248812886093965E-02   6   2   3   3
  0.1491496489700238E-01   6   2   4   1
 -0.4102791506321399E-02   6   2   4   2
 -0.3500844652568669E-02   6   2   4   3
  0.4054924187157318E-02   6   2   4   4
  0.3123049396983912E-01   6   2   5   1
 -0.1881168365809075E-01   6   2   5   2
  0.1625799276558627E-02   6   2   5   3
  0.4798167315211762E-02   6   2   5   4
  0.1865513261105508E-01   6   2   5   5
  0.5275312342496730E-02   6   2   6   1
  0.3039564554418214E-01   6   2   6   2
  0.1127367413339230E+00   6   3   1   1
  0.3962269026214802E-02   6   3   2   1
  0.8118627324219074E-01   6   3   2   2
 -0.2769350986249132E-01   6   3   3   1
 -0.3044643467340779E-01   6   3   3   2
  0.3393537845825933E-02   6   3   3   3
 -0.2718332129421701E-01   6   3   4   1
 -0.3279345457628139E-01   6   3   4   2
  0.1795270315901197E-01   6   3   4   3
  0.3148051188120804E-01   6   3   4   4
 -0.7532062758341285E-02   6   3   5   1
 -0.2962968682950976E-01   6   3   5   2
  0.1275356752023643E-01   6   3   5   3
  0.1939076704486581E-01   6   3   5   4
  0.8085019569901086E-01   6   3   5   5
 -0.3467104557485429E-01   6   3   6   1
 -0.5072489702165860E-02   6   3   6   2
  0.3670688290212257E-01   6   3   6   3
  0.4827581304083782E-01   6   4   1   1
  0.2095470854248765E-01   6   4   2   1
  0.2388521539232530E-01   6   4   2   2
 -0.2306085964219566E-01   6   4   3   1
 -0.1666675117430122E-01   6   4   3   2
  0.5346398095728730E-02   6   4   3   3
 -0.2117055553835668E-01   6   4   4   1
 -0.1788661336292421E-01   6   4   4   2
  0.8259387008882294E-02   6   4   4   3
  0.4145878589004586E-02   6   4   4   4
 -0.1463262848076345E-01   6   4   5   1
 -0.1933527823553531E-01   6   4   5   2
  0.1132480019387883E-01   6   4   5   3
  0.1596984847211958E-01   6   4   5   4
  0.2183943726008853E-01   6   4   5   5
 -0.3549825619087184E-01   6   4   6   1
 -0.1241719450091127E-01   6   4   6   2
  0.1683977615588641E-01   6   4   6   3
  0.2563104046320200E-01   6   4   6   4
  0.8973593736741378E-02   6   5   1   1
  0.8021336029610064E-01   6   5   2   1
 -0.2869341032049286E-01   6   5   2   2
 -0.1726632421773013E-01   6   5   3   1
  0.1120979335725460E-01   6   5   3   2
  0.2578334207144003E-01   6   5   3   3
 -0.1821183733831721E-01   6   5   4   1
  0.3438759564639749E-01   6   5   4   2
  0.8965553647056160E-02   6   5   4   3
  0.4029774905922340E-01   6   5   4   4
 -0.2258980877964261E-01   6   5   5   1
  0.7408245383275329E-02   6   5   5   2
  0.1740717181162013E-01   6   5   5   3
  0.3295689761439046E-02   6   5   5   4
 -0.5341337413135454E-01   6   5   5   5
 -0.1597875349954592E-03   6   5   6   1
 -0.1762879241584693E-01   6   5   6   2
  0.6340600887037084E-02   6   5   6   3
  0.1433992933823010E-01   6   5   6   4
  0.5073112834187888E-01   6   5   6   5
  0.7192876963060977E+00   6   6   1   1
  0.1669606606642860E-01   6   6   2   1
  0.6388008895631448E+00   6   6   2   2
 -0.7542944620245234E-01   6   6   3   1
 -0.6138738405289151E-01   6   6   3   2
  0.3805979787644327E+00   6   6   3   3
 -0.5400445659861467E-01   6   6   4   1
 -0.5495247731124221E-01   6   6   4   2
  0.9688832361558675E-01   6   6   4   3
  0.5167020512436231E+00   6   6   4   4
  0.1371330393886666E-01   6   6   5   1
 -0.1300050894159673E+00   6   6   5   2
  0.5339713922518055E-01   6   6   5   3
  0.6973923802202575E-01   6   6   5   4
  0.5603619514212541E+00   6   6   5   5
 -0.1045018355034112E+00   6   6   6   1
  0.8457603174103268E-02   6   6   6   2
  0.8610659992339209E-01   6   6   6   3
  0.2818407701243542E-01   6   6   6   4
  0.1767439159360473E-01   6   6   6   5
  0.6292124153865412E+00   6   6   6   6
  0.8456345487032211E+00   7   7   1   1
 -0.4950114698481663E-01   7   7   2   1
  0.7467208929628254E+00   7   7   2   2
 -0.9492656743763798E-01   7   7   3   1
 -0.9490369539455967E-01   7   7   3   2
  0.3737338473790110E+00   7   7   3   3
 -0.6870717163418663E-01   7   7   4   1
 -0.1105519827354382E+00   7   7   4   2
  0.1119254919973094E+00   7   7   4   3
  0.5234802171666064E+00   7   7   4   4
  0.3469084210622281E-01   7   7   5   1
 -0.1793442029568925E+00   7   7   5   2
  0.5396421858000126E-01   7   7   5   3
  0.8978582766309573E-01   7   7   5   4
  0.6686740824339399E+00   7   7   5   5
 -0.1540405941844134E+00   7   7   6   1
  0.2193295543083784E-01   7   7   6   2
  0.1083389034619573E+00   7   7   6   3
  0.3571434234521109E-01   7   7   6   4
 -0.1961016542032756E-01   7   7   6   5
  0.6993333098429370E+00   7   7   6   6
  0.8969759806728802E+00   7   7   7   7
 -0.2268608924223006E+00   8   7   1   1
  0.2512103149729154E-01   8   7   2   1
 -0.1833801764544480E+00   8   7   2   2
  0.5187528370895744E-01   8   7   3   1
  0.4485972854989081E-01   8   7   3   2
 -0.3670404567095378E-01   8   7   3   3
  0.3613792300893125E-01   8   7   4   1
  0.6374338718535953E-01   8   7   4   2
 -0.4494580810540481E-01   8   7   4   3
 -0.8037858057344244E-01   8   7   4   4
 -0.2125569236993693E-01   8   7   5   1
  0.1201651010568739E+00   8   7   5   2
 -0.3394910809759329E-01   8   7   5   3
 -0.5906522093684226E-01   8   7   5   4
 -0.1545804422276183E+00   8   7   5   5
  0.1210698612781828E+00   8   7   6   1
 -0.1037539596441910E-01   8   7   6   2
 -0.4147984922174214E-01   8   7   6   3
 -0.3626404483864609E-01   8   7   6   4
  0.8430450499565686E-02   8   7   6   5
 -0.1507449024108245E+00   8   7   6   6
 -0.2448823089566049E+00   8   7   7   7
  0.1810614618504984E+00   8   7   8   7
  0.7018175674105765E+00   8   8   1   1
 -0.3507932649630473E-01   8   8   2   1
  0.6348740593382391E+00   8   8   2   2
 -0.6773963291809590E-01   8   8   3   1
 -0.7128036955000946E-01   8   8   3   2
  0.3514924276333967E+00   8   8   3   3
 -0.5106510342579425E-01   8   8   4   1
 -0.8306290782427833E-01   8   8   4   2
  0.8634736756601180E-01   8   8   4   3
  0.4696425339724417E+00   8   8   4   4
  0.2481822487310481E-01   8   8   5   1
 -0.1360015623126771E+00   8   8   5   2
  0.4261073616585200E-01   8   8   5   3
  0.6988337828559354E-01   8   8   5   4
  0.5916836897705351E+00   8   8   5   5
 -0.1163433529182527E+00   8   8   6   1
  0.1636443953006811E-01   8   8   6   2
  0.8952578292775459E-01   8   8   6   3
  0.2456563107711007E-01   8   8   6   4
 -0.1386910698170529E-01   8   8   6   5
  0.6104648534949670E+00   8   8   6   6
  0.7431791608722518E+00   8   8   7   7
 -0.1779397601678280E+00   8   8   8   7
  0.6616770018948654E+00   8   8   8   8
  0.8456345487032217E+00   9   9   1   1
 -0.4950114698481658E-01   9   9   2   1
  0.7467208929628256E+00   9   9   2   2
 -0.9492656743763823E-01   9   9   3   1
 -0.9490369539455981E-01   9   9   3   2
  0.3737338473790112E+00   9   9   3   3
 -0.6870717163418634E-01   9   9   4   1
 -0.1105519827354382E+00   9   9   4   2
  0.1119254919973092E+00   9   9   4   3
  0.5234802171666070E+00   9   9   4   4
  0.3469084210622270E-01   9   9   5   1
 -0.1793442029568927E+00   9   9   5   2
  0.5396421858000140E-01   9   9   5   3
  0.8978582766309584E-01   9   9   5   4
  0.6686740824339408E+00   9   9   5   5
 -0.1540405941844134E+00   9   9   6   1
  0.2193295543083734E-01   9   9   6   2
  0.1083389034619576E+00   9   9   6   3
  0.3571434234521020E-01   9   9   6   4
 -0.1961016542032673E-01   9   9   6   5
  0.6993333098429340E+00   9   9   6   6
  0.8080487066247689E+00   9   9   7   7
 -0.2177258060073028E+00   9   9   8   7
  0.6813894339627411E+00   9   9   8   8
  0.8969759806728813E+00   9   9   9   9
 -0.2268608924223006E+00  10   9   1   1
  0.2512103149729149E-01  10   9   2   1
 -0.1833801764544483E+00  10   9   2   2
  0.5187528370895741E-01  10   9   3   1
  0.4485972854989082E-01  10   9   3   2
 -0.3670404567095372E-01  10   9   3   3
  0.3613792300893121E-01  10   9   4   1
  0.6374338718535966E-01  10   9   4   2
 -0.4494580810540508E-01  10   9   4   3
 -0.8037858057344256E-01  10   9   4   4
 -0.2125569236993688E-01  10   9   5   1
  0.1201651010568743E+00  10   9   5   2
 -0.3394910809759326E-01  10   9   5   3
 -0.5906522093684307E-01  10   9   5   4
 -0.1545804422276190E+00  10   9   5   5
  0.1210698612781830E+00  10   9   6   1
 -0.1037539596441879E-01  10   9   6   2
 -0.4147984922174230E-01  10   9   6   3
 -0.3626404483864529E-01  10   9   6   4
  0.8430450499565464E-02  10   9   6   5
 -0.1507449024108263E+00  10   9   6   6
 -0.2177258060073026E+00  10   9   7   7
  0.1422379522673018E+00  10   9   8   7
 -0.1658009869381404E+00  10   9   8   8
 -0.2448823089566055E+00  10   9   9   9
  0.1810614618504987E+00  10   9  10   9
  0.7018175674105764E+00  10  10   1   1
 -0.3507932649630466E-01  10  10   2   1
  0.6348740593382393E+00  10  10   2   2
 -0.6773963291809568E-01  10  10   3   1
 -0.7128036955000935E-01  10  10   3   2
  0.3514924276333969E+00  10  10   3   3
 -0.5106510342579428E-01  10  10   4   1
 -0.8306290782427894E-01  10  10   4   2
  0.8634736756601225E-01  10  10   4   3
  0.4696425339724409E+00  10  10   4   4
  0.2481822487310492E-01  10  10   5   1
 -0.1360015623126770E+00  10  10   5   2
  0.4261073616585175E-01  10  10   5   3
  0.6988337828559466E-01  10  10   5   4
  0.5916836897705354E+00  10  10   5   5
 -0.1163433529182538E+00  10  10   6   1
  0.1636443953006872E-01  10  10   6   2
  0.8952578292775359E-01  10  10   6   3
  0.2456563107711240E-01  10  10   6   4
 -0.1386910698170679E-01  10  10   6   5
  0.6104648534949749E+00  10  10   6   6
  0.6813894339627407E+00  10  10   7   7
 -0.1658009869381402E+00  10  10   8   7
  0.6013420957592208E+00  10  10   8   8
  0.7431791608722520E+00  10  10   9   9
 -0.1779397601678280E+00  10  10  10   9
  0.6616770018948659E+00  10  10  10  10
  0.1635013046348197E+00   7   1   7   1
 -0.3422360684774160E-01   7   2   7   1
  0.4490853322812927E-01   7   2   7   2
 -0.1958797056602461E-01   7   3   7   1
 -0.5513976776511495E-02   7   3   7   2
  0.1001472277468678E-01   7   3   7   3
 -0.3548815467023714E-01   7   4   7   1
 -0.7723477651632651E-02   7   4   7   2
  0.8353377736442765E-02   7   4   7   3
  0.1726901824906135E-01   7   4   7   4
  0.1656153723182748E-01   7   5   7   1
 -0.1329192387866571E-01   7   5   7   2
  0.1039868514928440E-03   7   5   7   3
  0.2715126961048131E-02   7   5   7   4
  0.2161564450562683E-01   7   5   7   5
 -0.1643510882605436E-01   7   6   7   1
  0.5581492294872057E-02   7   6   7   2
  0.1358528783194269E-01   7   6   7   3
  0.1319072682265131E-02   7   6   7   4
 -0.7996237085615520E-02   7   6   7   5
  0.4953749020467540E-01   7   6   7   6
 -0.4853666428245400E-01   8   1   7   1
  0.1221357915997563E-01   8   1   7   2
  0.1576852546755224E-01   8   1   7   3
  0.9319876175982282E-02   8   1   7   4
 -0.1119401456181906E-01   8   1   7   5
  0.4228156521324845E-01   8   1   7   6
  0.4443184262396421E-01   8   1   8   1
  0.1513088844938161E-01   8   2   7   1
 -0.1244914217013106E-01   8   2   7   2
  0.1571119849239308E-02   8   2   7   3
  0.3985041875975115E-02   8   2   7   4
  0.1946911908331096E-01   8   2   7   5
 -0.5900056004068434E-02   8   2   7   6
 -0.8317425458738941E-02   8   2   8   1
  0.1866783912261114E-01   8   2   8   2
  0.3906016175029271E-01   8   3   7   1
 -0.1592367657604234E-02   8   3   7   2
 -0.1049679765537423E-02   8   3   7   3
 -0.1245579795910063E-01   8   3   7   4
 -0.1922892032510161E-02   8   3   7   5
  0.4116903998931187E-02   8   3   7   6
 -0.3463470965546983E-02   8   3   8   1
 -0.2843861030236697E-03   8   3   8   2
  0.1924114548248033E-01   8   3   8   3
  0.4698130778669758E-02   8   4   7   1
  0.7528978847769150E-02   8   4   7   2
 -0.7339137718909824E-02   8   4   7   3
 -0.2455743532037195E-02   8   4   7   4
 -0.5440378561828716E-02   8   4   7   5
 -0.1413460251284349E-01   8   4   7   6
 -0.1134002505299182E-01   8   4   8   1
 -0.4491734923693892E-02   8   4   8   2
 -0.8063802173905773E-03   8   4   8   3
  0.1127178065690630E-01   8   4   8   4
 -0.2634248390665224E-01   8   5   7   1
  0.3330108928506297E-01   8   5   7   2
 -0.4719073552758825E-02   8   5   7   3
 -0.5985658748873560E-02   8   5   7   4
 -0.5537046140597598E-02   8   5   7   5
  0.2836855977642000E-02   8   5   7   6
  0.7411249190056744E-02   8   5   8   1
 -0.5875126434180506E-02   8   5   8   2
 -0.3077383919457116E-02   8   5   8   3
  0.4986596390618293E-02   8   5   8   4
  0.3492944240803753E-01   8   5   8   5
  0.1112127510406254E+00   8   6   7   1
 -0.2044480542478843E-01   8   6   7   2
 -0.8004438454339501E-02   8   6   7   3
 -0.2764820803452294E-01   8   6   7   4
  0.9002231142948670E-02   8   6   7   5
  0.4909765102525134E-03   8   6   7   6
 -0.2294850041218980E-01   8   6   8   1
  0.9069627167656573E-02   8   6   8   2
  0.3555025726926481E-01   8   6   8   3
 -0.2784678422770831E-02   8   6   8   4
 -0.1742486957215810E-01   8   6   8   5
  0.9277196555805114E-01   8   6   8   6
  0.1635013046348198E+00   9   1   9   1
 -0.3422360684774163E-01   9   2   9   1
  0.4490853322812929E-01   9   2   9   2
 -0.1958797056602466E-01   9   3   9   1
 -0.5513976776511497E-02   9   3   9   2
  0.1001472277468678E-01   9   3   9   3
 -0.3548815467023717E-01   9   4   9   1
 -0.7723477651632662E-02   9   4   9   2
  0.8353377736442780E-02   9   4   9   3
  0.1726901824906135E-01   9   4   9   4
  0.1656153723182752E-01   9   5   9   1
 -0.1329192387866576E-01   9   5   9   2
  0.1039868514928500E-03   9   5   9   3
  0.2715126961048140E-02   9   5   9   4
  0.2161564450562685E-01   9   5   9   5
 -0.1643510882605449E-01   9   6   9   1
  0.5581492294872080E-02   9   6   9   2
  0.1358528783194269E-01   9   6   9   3
  0.1319072682265167E-02   9   6   9   4
 -0.7996237085615532E-02   9   6   9   5
  0.4953749020467539E-01   9   6   9   6
 -0.4853666428245393E-01  10   1   9   1
  0.1221357915997562E-01  10   1   9   2
  0.1576852546755222E-01  10   1   9   3
  0.9319876175982279E-02  10   1   9   4
 -0.1119401456181906E-01  10   1   9   5
  0.4228156521324847E-01  10   1   9   6
  0.4443184262396416E-01  10   1  10   1
  0.1513088844938159E-01  10   2   9   1
 -0.1244914217013105E-01  10   2   9   2
  0.1571119849239307E-02  10   2   9   3
  0.3985041875975107E-02  10   2   9   4
  0.1946911908331095E-01  10   2   9   5
 -0.5900056004068418E-02  10   2   9   6
 -0.8317425458738908E-02  10   2  10   1
  0.1866783912261113E-01  10   2  10   2
  0.3906016175029272E-01  10   3   9   1
 -0.1592367657604236E-02  10   3   9   2
 -0.1049679765537439E-02  10   3   9   3
 -0.1245579795910063E-01  10   3   9   4
 -0.1922892032510165E-02  10   3   9   5
  0.4116903998931184E-02  10   3   9   6
 -0.3463470965546962E-02  10   3  10   1
 -0.2843861030236699E-03  10   3  10   2
  0.1924114548248035E-01  10   3  10   3
  0.4698130778669740E-02  10   4   9   1
  0.7528978847769149E-02  10   4   9   2
 -0.7339137718909816E-02  10   4   9   3
 -0.2455743532037194E-02  10   4   9   4
 -0.5440378561828722E-02  10   4   9   5
 -0.1413460251284347E-01  10   4   9   6
 -0.1134002505299181E-01  10   4  10   1
 -0.4491734923693884E-02  10   4  10   2
 -0.8063802173905926E-03  10   4  10   3
  0.1127178065690629E-01  10   4  10   4
 -0.2634248390665224E-01  10   5   9   1
  0.3330108928506297E-01  10   5   9   2
 -0.4719073552758825E-02  10   5   9   3
 -0.5985658748873558E-02  10   5   9   4
 -0.5537046140597615E-02  10   5   9   5
  0.2836855977642014E-02  10   5   9   6
  0.7411249190056713E-02  10   5  10   1
 -0.5875126434180460E-02  10   5  10   2
 -0.3077383919457116E-02  10   5  10   3
  0.4986596390618275E-02  10   5  10   4
  0.3492944240803752E-01  10   5  10   5
  0.1112127510406255E+00  10   6   9   1
 -0.2044480542478844E-01  10   6   9   2
 -0.8004438454339529E-02  10   6   9   3
 -0.2764820803452296E-01  10   6   9   4
  0.9002231142948675E-02  10   6   9   5
  0.4909765102524824E-03  10   6   9   6
 -0.2294850041218968E-01  10   6  10   1
  0.9069627167656545E-02  10   6  10   2
  0.3555025726926485E-01  10   6  10   3
 -0.2784678422770831E-02  10   6  10   4
 -0.1742486957215808E-01  10   6  10   5
  0.9277196555805108E-01  10   6  10   6
  0.4446363702405581E-01   9   7   9   7
 -0.1357825147465127E-01   9   8   9   7
  0.1941175479159848E-01   9   8   9   8
 -0.1357825147465123E-01  10   7   9   7
  0.1941175479159848E-01  10   7   9   8
  0.1941175479159847E-01  10   7  10   7
  0.3089486345475564E-01  10   8   9   7
 -0.6069386614844225E-02  10   8   9   8
 -0.6069386614844180E-02  10   8  10   7
  0.3016745306782255E-01  10   8  10   8
 -0.6942080804654344E+01   1   1   0   0
  0.1674518612722966E+00   2   1   0   0
 -0.5840044535319558E+01   2   2   0   0
  0.5988677593166984E+00   3   1   0   0
  0.6161898532779699E+00   3   2   0   0
 -0.2800128416615962E+01   3   3   0   0
  0.3621953449244736E+00   4   1   0   0
  0.6547769039092682E+00   4   2   0   0
 -0.8534116173265298E+00   4   3   0   0
 -0.3403956348633688E+01   4   4   0   0
 -0.1749451418447179E+00   5   1   0   0
  0.1199576419569517E+01   5   2   0   0
 -0.4024100961145169E+00   5   3   0   0
 -0.6415059905835578E+00   5   4   0   0
 -0.3606531454508648E+01   5   5   0   0
  0.9782402930047915E+00   6   1   0   0
 -0.1240045484198156E+00   6   2   0   0
 -0.7475917165410868E+00   6   3   0   0
 -0.2556097152767727E+00   6   4   0   0
  0.7972971620397606E-01   6   5   0   0
 -0.3126689324478062E+01   6   6   0   0
 -0.6080485721960269E+01   7   7   0   0
  0.1426252000802415E+01   8   7   0   0
 -0.3821030599069943E+01   8   8   0   0
 -0.6080485721960272E+01   9   9   0   0
  0.1426252000802415E+01  10   9   0   0
 -0.3821030599069941E+01  10  10   0   0
 -0.7143571766021515E+02   0   0   0   0
