 &FCI NORB=  5,NELEC=  8,MS2= 0,
  ORBSYM=1,1,1,2,3,
  ISYM=1,
 /
  0.8570353853309771E+00   1   1   1   1
 -0.1483036682425553E-01   2   1   1   1
  0.1579318936302189E+00   2   1   2   1
  0.7585940062791166E+00   2   2   1   1
 -0.5282030896319129E-01   2   2   2   1
  0.7769811036441290E+00   2   2   2   2
 -0.1323019725164984E+00   3   1   1   1
 -0.4261622688113530E-01   3   1   2   1
 -0.4060718596439537E-01   3   1   2   2
  0.9802078944062020E-01   3   1   3   1
 -0.1587425590675010E+00   3   2   1   1
  0.9407164386683639E-01   3   2   2   1
 -0.1267211303798988E+00   3   2   2   2
  0.5825759490216334E-01   3   2   3   1
  0.1709911140885152E+00   3   2   3   2
  0.6861303397377740E+00   3   3   1   1
  0.7295743962584605E-01   3   3   2   1
  0.6695676143267884E+00   3   3   2   2
 -0.6776450915169038E-01   3   3   3   1
 -0.1342009016317680E-01   3   3   3   2
  0.7158197434540131E+00   3   3   3   3
  0.8768695901097837E+00   4   4   1   1
 -0.7723712336015401E-01   4   4   2   1
  0.7617006237513007E+00   4   4   2   2
 -0.1310085917087039E+00   4   4   3   1
 -0.1913535006800270E+00   4   4   3   2
  0.6531916349846456E+00   4   4   3   3
  0.9975136259296596E+00   4   4   4   4
  0.8768695901097837E+00   5   5   1   1
 -0.7723712336015401E-01   5   5   2   1
  0.7617006237513007E+00   5   5   2   2
 -0.1310085917087039E+00   5   5   3   1
 -0.1913535006800270E+00   5   5   3   2
  0.6531916349846456E+00   5   5   3   3
  0.8899728857331826E+00   5   5   4   4
  0.9975136259296596E+00   5   5   5   5
  0.1798088777775677E+00   4   1   4   1
 -0.4401201931063110E-01   4   2   4   1
  0.4951705398027847E-01   4   2   4   2
 -0.4349842165125626E-01   4   3   4   1
 -0.1362918794445056E-01   4   3   4   2
  0.3178562732707145E-01   4   3   4   3
  0.1798088777775677E+00   5   1   5   1
 -0.4401201931063110E-01   5   2   5   1
  0.4951705398027847E-01   5   2   5   2
 -0.4349842165125626E-01   5   3   5   1
 -0.1362918794445056E-01   5   3   5   2
  0.3178562732707145E-01   5   3   5   3
  0.5377037009823853E-01   5   4   5   4
 -0.6835502747874972E+01   1   1   0   0
  0.2885751306068017E+00   2   1   0   0
 -0.5669317226134440E+01   2   2   0   0
  0.7446255118446536E+00   3   1   0   0
  0.1139745648464393E+01   3   2   0   0
 -0.4362063955252502E+01   3   3   0   0
 -0.6235682395906604E+01   4   4   0   0
 -0.6235682395906604E+01   5   5   0   0
 -0.7060952294494014E+02   0   0   0   0
