 &FCI NORB= 13,NELEC=  8,MS2= 0,
  ORBSYM=1,1,1,1,2,2,3,3,4,5,5,6,7,
  ISYM=1,
 /
  0.1022548253089718E+01   1   1   1   1
 -0.2273943588237536E+00   2   1   1   1
  0.1382571209247366E+00   2   1   2   1
  0.8250551938845171E+00   2   2   1   1
 -0.1445517571238737E+00   2   2   2   1
  0.7115051002850163E+00   2   2   2   2
  0.2254796373113305E-11   3   1   1   1
 -0.3713408780301932E-12   3   1   2   1
  0.1246986569883783E-11   3   1   2   2
  0.1051463042641463E+00   3   1   3   1
  0.2188663681042692E-11   3   2   1   1
 -0.8971456507918081E-12   3   2   2   1
  0.1576318780881839E-11   3   2   2   2
 -0.2742733998204538E-01   3   2   3   1
  0.2250442505022171E-01   3   2   3   2
  0.1028821079462187E+01   3   3   1   1
 -0.2125208814379231E+00   3   3   2   1
  0.8188650189172236E+00   3   3   2   2
  0.7353260026782152E-01   3   3   3   1
 -0.1799480315931310E-01   3   3   3   2
  0.1141195161346570E+01   3   3   3   3
  0.1059887787163204E-18   4   1   1   1
 -0.2424889464694061E-19   4   1   2   1
  0.9798246726802496E-19   4   1   2   2
 -0.1355182739669353E-18   4   1   3   1
  0.3318868362340416E-18   4   1   3   2
  0.2817296319122861E-07   4   1   3   3
  0.1051463042653609E+00   4   1   4   1
  0.1158190752227759E-18   4   2   1   1
 -0.3359435891178661E-19   4   2   2   1
  0.7711206005749045E-19   4   2   2   2
  0.3319054661340681E-18   4   2   3   1
 -0.1538446825278860E-18   4   2   3   2
 -0.6894451242149246E-08   4   2   3   3
 -0.2742733998426057E-01   4   2   4   1
  0.2250442505123390E-01   4   2   4   2
 -0.1006900468548934E-18   4   3   1   1
  0.3248027575158040E-18   4   3   2   1
 -0.1232382708989328E-18   4   3   2   2
  0.2817296319104007E-07   4   3   3   1
 -0.6894451241396767E-08   4   3   3   2
  0.7612272241754767E-18   4   3   3   3
 -0.7353260026307518E-01   4   3   4   1
  0.1799480316880430E-01   4   3   4   2
  0.6677735878495257E-01   4   3   4   3
  0.1028821079463402E+01   4   4   1   1
 -0.2125208814401383E+00   4   4   2   1
  0.8188650189182346E+00   4   4   2   2
 -0.7353260026056697E-01   4   4   3   1
  0.1799480316386922E-01   4   4   3   2
  0.1007640443771000E+01   4   4   3   3
 -0.2817296319063474E-07   4   4   4   1
  0.6894451242352560E-08   4   4   4   2
 -0.3753050788051095E-18   4   4   4   3
  0.1141195161344305E+01   4   4   4   4
  0.9937583904259155E+00   5   5   1   1
 -0.2203011296992747E+00   5   5   2   1
  0.8103324852530163E+00   5   5   2   2
 -0.4091041567866675E-01   5   5   3   1
  0.1116221326043316E-01   5   5   3   2
  0.9677274593734465E+00   5   5   3   3
  0.7085889763250847E-01   5   5   4   1
 -0.1933351480403483E-01   5   5   4   2
 -0.4859318521146824E-01   5   5   4   3
  0.1023838003401750E+01   5   5   4   4
  0.1041012837535734E+01   5   5   5   5
 -0.2661688230662134E+00   6   5   1   1
  0.1509298560856618E+00   6   5   2   1
 -0.1731950555148836E+00   6   5   2   2
  0.1236879308069424E-01   6   5   3   1
 -0.1131404311125816E-01   6   5   3   2
 -0.2429560298002381E+00   6   5   3   3
 -0.2142337174441034E-01   6   5   4   1
  0.1959649174871014E-01   6   5   4   2
  0.1380815635089628E-01   6   5   4   3
 -0.2589003059683559E+00   6   5   4   4
 -0.2835005279243525E+00   6   5   5   5
  0.1993437564498496E+00   6   5   6   5
  0.7901714853067969E+00   6   6   1   1
 -0.1475461192618670E+00   6   6   2   1
  0.6867763133887410E+00   6   6   2   2
 -0.2269365388041116E-01   6   6   3   1
  0.5431752583241137E-02   6   6   3   2
  0.7628256557789161E+00   6   6   3   3
  0.3930655004734184E-01   6   6   4   1
 -0.9408068625968906E-02   6   6   4   2
 -0.2581339518395515E-01   6   6   4   3
  0.7926323795503815E+00   6   6   4   4
  0.8275602256083014E+00   6   6   5   5
 -0.1851531558918657E+00   6   6   6   5
  0.7168737517057536E+00   6   6   6   6
  0.9937583904259155E+00   7   7   1   1
 -0.2203011296992747E+00   7   7   2   1
  0.8103324852530163E+00   7   7   2   2
 -0.4091039757961722E-01   7   7   3   1
  0.1116220832219316E-01   7   7   3   2
  0.9677274345497391E+00   7   7   3   3
 -0.7085890808199959E-01   7   7   4   1
  0.1933351765512901E-01   7   7   4   2
  0.4859317087949407E-01   7   7   4   3
  0.1023838028225458E+01   7   7   4   4
  0.9376615773377880E+00   7   7   5   5
 -0.2511334776139516E+00   7   7   6   5
  0.7596044034192221E+00   7   7   6   6
  0.1041012837535734E+01   7   7   7   7
 -0.2661688230662134E+00   8   7   1   1
  0.1509298560856618E+00   8   7   2   1
 -0.1731950555148836E+00   8   7   2   2
  0.1236878760865502E-01   8   7   3   1
 -0.1131403810584760E-01   8   7   3   2
 -0.2429560227463758E+00   8   7   3   3
  0.2142337490369365E-01   8   7   4   1
 -0.1959649463858527E-01   8   7   4   2
 -0.1380815227834702E-01   8   7   4   3
 -0.2589003130222182E+00   8   7   4   4
 -0.2511334776139516E+00   8   7   5   5
  0.1568313334959159E+00   8   7   6   5
 -0.1741454661313993E+00   8   7   6   6
 -0.2835005279243525E+00   8   7   7   7
  0.1993437564498496E+00   8   7   8   7
  0.7901714853067969E+00   8   8   1   1
 -0.1475461192618670E+00   8   8   2   1
  0.6867763133887410E+00   8   8   2   2
 -0.2269364384058243E-01   8   8   3   1
  0.5431750180196413E-02   8   8   3   2
  0.7628256425922076E+00   8   8   3   3
 -0.3930655584383965E-01   8   8   4   1
  0.9408070013367430E-02   8   8   4   2
  0.2581338757060542E-01   8   8   4   3
  0.7926323927370901E+00   8   8   4   4
  0.7596044034192219E+00   8   8   5   5
 -0.1741454661313995E+00   8   8   6   5
  0.6509364063924533E+00   8   8   6   6
  0.8275602256083014E+00   8   8   7   7
 -0.1851531558918657E+00   8   8   8   7
  0.7168737517057536E+00   8   8   8   8
  0.1028821079463401E+01   9   9   1   1
 -0.2125208814401380E+00   9   9   2   1
  0.8188650189182360E+00   9   9   2   2
 -0.7353260026057153E-01   9   9   3   1
  0.1799480316386973E-01   9   9   3   2
  0.1007640443771000E+01   9   9   3   3
 -0.9390987730092846E-08   9   9   4   1
  0.2298150413570777E-08   9   9   4   2
 -0.8146400515406748E-08   9   9   4   3
  0.1071427771567796E+01   9   9   4   4
  0.1023838015813604E+01   9   9   5   5
 -0.2589003094952874E+00   9   9   6   5
  0.7926323861437358E+00   9   9   6   6
  0.1023838015813604E+01   9   9   7   7
 -0.2589003094952874E+00   9   9   8   7
  0.7926323861437358E+00   9   9   8   8
  0.1141195161344304E+01   9   9   9   9
  0.9937583904248686E+00  10  10   1   1
 -0.2203011296973929E+00  10  10   2   1
  0.8103324852520520E+00  10  10   2   2
  0.8182081328082308E-01  10  10   3   1
 -0.2232442160505175E-01  10  10   3   2
  0.1051893300240577E+01  10  10   3   3
  0.1044949112148919E-07  10  10   4   1
 -0.2851094190013799E-08  10  10   4   2
  0.1433197416500590E-07  10  10   4   3
  0.9396721625365595E+00  10  10   4   4
  0.9376615773377565E+00  10  10   5   5
 -0.2511334776139320E+00  10  10   6   5
  0.7596044034192000E+00  10  10   6   6
  0.9376615773377565E+00  10  10   7   7
 -0.2511334776139320E+00  10  10   8   7
  0.7596044034192000E+00  10  10   8   8
  0.9396721625365571E+00  10  10   9   9
  0.1041012837535663E+01  10  10  10  10
 -0.2661688230659193E+00  11  10   1   1
  0.1509298560850043E+00  11  10   2   1
 -0.1731950555139334E+00  11  10   2   2
 -0.2473758071320241E-01  11  10   3   1
  0.2262808125151479E-01  11  10   3   2
 -0.2668724511069387E+00  11  10   3   3
 -0.3159283312643950E-08  11  10   4   1
  0.2889875138869983E-08  11  10   4   2
 -0.4072549252155281E-08  11  10   4   3
 -0.2349838846629760E+00  11  10   4   4
 -0.2511334776139626E+00  11  10   5   5
  0.1568313334959211E+00  11  10   6   5
 -0.1741454661314066E+00  11  10   6   6
 -0.2511334776139626E+00  11  10   7   7
  0.1568313334959211E+00  11  10   8   7
 -0.1741454661314066E+00  11  10   8   8
 -0.2349838846629752E+00  11  10   9   9
 -0.2835005279243406E+00  11  10  10  10
  0.1993437564498617E+00  11  10  11  10
  0.7901714853062679E+00  11  11   1   1
 -0.1475461192608625E+00  11  11   2   1
  0.6867763133883071E+00  11  11   2   2
  0.4538729785658564E-01  11  11   3   1
 -0.1086350278085032E-01  11  11   3   2
  0.8075357546233835E+00  11  11   3   3
  0.5796497822035684E-08  11  11   4   1
 -0.1387398527483252E-08  11  11   4   2
  0.7613349726590302E-08  11  11   4   3
  0.7479222807070327E+00  11  11   4   4
  0.7596044034192533E+00  11  11   5   5
 -0.1741454661314195E+00  11  11   6   5
  0.6509364063924753E+00  11  11   6   6
  0.7596044034192533E+00  11  11   7   7
 -0.1741454661314195E+00  11  11   8   7
  0.6509364063924753E+00  11  11   8   8
  0.7479222807070307E+00  11  11   9   9
  0.8275602256083131E+00  11  11  10  10
 -0.1851531558918970E+00  11  11  11  10
  0.7168737517058001E+00  11  11  11  11
  0.1028821079462491E+01  12  12   1   1
 -0.2125208814384769E+00  12  12   2   1
  0.8188650189174750E+00  12  12   2   2
  0.3676629199342937E-01  12  12   3   1
 -0.8997399575407716E-02  12  12   3   2
  0.1055480946674436E+01  12  12   3   3
  0.6368110453024591E-01  12  12   4   1
 -0.1558395782219662E-01  12  12   4   2
 -0.2762071906630825E-01  12  12   4   3
  0.1023587268666060E+01  12  12   4   4
  0.1023838015813604E+01  12  12   5   5
 -0.2589003094952874E+00  12  12   6   5
  0.7926323861437358E+00  12  12   6   6
  0.9396721625365867E+00  12  12   7   7
 -0.2349838846629636E+00  12  12   8   7
  0.7479222807070021E+00  12  12   8   8
  0.1023587275721049E+01  12  12   9   9
  0.1023838015813572E+01  12  12  10  10
 -0.2589003094953014E+00  12  12  11  10
  0.7926323861437680E+00  12  12  11  11
  0.1141195161344304E+01  12  12  12  12
  0.1028821079462491E+01  13  13   1   1
 -0.2125208814384769E+00  13  13   2   1
  0.8188650189174750E+00  13  13   2   2
  0.3676630825909726E-01  13  13   3   1
 -0.8997403555920996E-02  13  13   3   2
  0.1055480932564457E+01  13  13   3   3
 -0.6368109513925818E-01  13  13   4   1
  0.1558395552404622E-01  13  13   4   2
  0.2762072721270876E-01  13  13   4   3
  0.1023587282776039E+01  13  13   4   4
  0.9396721625365867E+00  13  13   5   5
 -0.2349838846629636E+00  13  13   6   5
  0.7479222807070021E+00  13  13   6   6
  0.1023838015813604E+01  13  13   7   7
 -0.2589003094952874E+00  13  13   8   7
  0.7926323861437358E+00  13  13   8   8
  0.1023587275721049E+01  13  13   9   9
  0.1023838015813572E+01  13  13  10  10
 -0.2589003094953014E+00  13  13  11  10
  0.7926323861437680E+00  13  13  11  11
  0.1023587275721049E+01  13  13  12  12
  0.1141195161344304E+01  13  13  13  13
  0.2004879106837543E+00   5   1   5   1
 -0.3945518142517425E-01   5   2   5   1
  0.5952882942348528E-01   5   2   5   2
 -0.8846864805121329E-01   5   3   5   1
  0.1765506220271596E-01   5   3   5   2
  0.6608176092741308E-01   5   3   5   3
  0.1532321481100181E+00   5   4   5   1
 -0.3057945573939036E-01   5   4   5   2
 -0.7615849866534281E-01   5   4   5   3
  0.1540219684671899E+00   5   4   5   4
 -0.5765849765236641E-01   6   1   5   1
  0.5295508633031915E-01   6   1   5   2
  0.2566668620373239E-01   6   1   5   3
 -0.4445599145487376E-01   6   1   5   4
  0.5007864612599174E-01   6   1   6   1
  0.1362130820865343E+00   6   2   5   1
 -0.8325290687510556E-02   6   2   5   2
 -0.5715631096908642E-01   6   2   5   3
  0.9899760540911663E-01   6   2   5   4
 -0.2387659514837809E-01   6   2   6   1
  0.1173833820692725E+00   6   2   6   2
  0.3015106706384729E-01   6   3   5   1
 -0.1773015765903566E-01   6   3   5   2
 -0.2230464126448254E-01   6   3   5   3
  0.2567281281384656E-01   6   3   5   4
 -0.1807285411951995E-01   6   3   6   1
  0.1700988049044754E-01   6   3   6   2
  0.1361518517083025E-01   6   3   6   3
 -0.5222316466009482E-01   6   4   5   1
  0.3070952482602128E-01   6   4   5   2
  0.2567281281479921E-01   6   4   5   3
 -0.5194903455903924E-01   6   4   5   4
  0.3130309234129813E-01   6   4   6   1
 -0.2946196858728597E-01   6   4   6   2
 -0.1456569435877014E-01   6   4   6   3
  0.3043419037907726E-01   6   4   6   4
  0.1532321594085155E+00   9   7   5   1
 -0.3057945799415178E-01   9   7   5   2
 -0.7615849863301913E-01   9   7   5   3
  0.8768712343128254E-01   9   7   5   4
 -0.4445599472829990E-01   9   7   6   1
  0.9899761270123467E-01   9   7   6   2
  0.2567281279562788E-01   9   7   6   3
 -0.2950174332481918E-01   9   7   6   4
  0.1540219879198808E+00   9   7   9   7
 -0.5222316851525885E-01   9   8   5   1
  0.3070952709779496E-01   9   8   5   2
  0.2567281279658053E-01   9   8   5   3
 -0.2950174332481915E-01   9   8   5   4
  0.3130309464941634E-01   9   8   6   1
 -0.2946197075964970E-01   9   8   6   2
 -0.1456569410311128E-01   9   8   6   3
  0.1481716681324163E-01   9   8   6   4
 -0.5194904111648591E-01   9   8   9   7
  0.3043419409950183E-01   9   8   9   8
  0.1532321594083541E+00  12  10   5   1
 -0.3057945799361188E-01  12  10   5   2
 -0.3786005520329393E-01  12  10   5   3
  0.1097987465765315E+00  12  10   5   4
 -0.4445599472824446E-01  12  10   6   1
  0.9899761270105099E-01  12  10   6   2
  0.1271286222159645E-01  12  10   6   3
 -0.3698417648427232E-01  12  10   6   4
  0.1097987514117099E+00  12  10   9   7
 -0.3698417810785571E-01  12  10   9   8
  0.1540219879198743E+00  12  10  12  10
 -0.5222316851521485E-01  12  11   5   1
  0.3070952709761478E-01  12  11   5   2
  0.1271286222255181E-01  12  11   5   3
 -0.3698417648428036E-01  12  11   5   4
  0.3130309464938188E-01  12  11   6   1
 -0.2946197075952914E-01  12  11   6   2
 -0.5549200884814231E-02  12  11   6   3
  0.2002284310677337E-01  12  11   6   4
 -0.3698417810786381E-01  12  11   9   7
  0.2002284381547216E-01  12  11   9   8
 -0.5194904111649359E-01  12  11  12  10
  0.3043419409950829E-01  12  11  12  11
  0.2004879106837543E+00   7   1   7   1
 -0.3945518142517425E-01   7   2   7   1
  0.5952882942348528E-01   7   2   7   2
 -0.8846860891207435E-01   7   3   7   1
  0.1765505439199488E-01   7   3   7   2
  0.6608172202203405E-01   7   3   7   3
 -0.1532321707070105E+00   7   4   7   1
  0.3057946024891241E-01   7   4   7   2
  0.7615847620331177E-01   7   4   7   3
  0.1540220073725689E+00   7   4   7   4
 -0.5765849765236641E-01   8   1   7   1
  0.5295508633031915E-01   8   1   7   2
  0.2566667484861372E-01   8   1   7   3
  0.4445599801075457E-01   8   1   7   4
  0.5007864612599174E-01   8   1   8   1
  0.1362130820865343E+00   8   2   7   1
 -0.8325290687510556E-02   8   2   7   2
 -0.5715628568274098E-01   8   2   7   3
 -0.9899762000819498E-01   8   2   7   4
 -0.2387659514837809E-01   8   2   8   1
  0.1173833820692725E+00   8   2   8   2
  0.3015105372480767E-01   8   3   7   1
 -0.1773014981509182E-01   8   3   7   2
 -0.2230462814959018E-01   8   3   7   3
 -0.2567280524195993E-01   8   3   7   4
 -0.1807284612396485E-01   8   3   8   1
  0.1700987296515918E-01   8   3   8   2
  0.1361517772998165E-01   8   3   8   3
  0.5222317236139294E-01   8   4   7   1
 -0.3070952935472430E-01   8   4   7   2
 -0.2567280524291258E-01   8   4   7   3
 -0.5194904767393162E-01   8   4   7   4
 -0.3130309695753403E-01   8   4   8   1
  0.2946197293201316E-01   8   4   8   2
  0.1456569006279420E-01   8   4   8   3
  0.3043419781992591E-01   8   4   8   4
  0.1532321594085155E+00   9   5   7   1
 -0.3057945799415178E-01   9   5   7   2
 -0.7615847623563919E-01   9   5   7   3
 -0.8768714288397200E-01   9   5   7   4
 -0.4445599472829990E-01   9   5   8   1
  0.9899761270123467E-01   9   5   8   2
  0.2567280526287409E-01   9   5   8   3
  0.2950174988226528E-01   9   5   8   4
  0.1540219879198808E+00   9   5   9   5
 -0.5222316851525885E-01   9   6   7   1
  0.3070952709779496E-01   9   6   7   2
  0.2567280526382676E-01   9   6   7   3
  0.2950174988226530E-01   9   6   7   4
  0.3130309464941633E-01   9   6   8   1
 -0.2946197075128445E-01   9   6   8   2
 -0.1456569031610098E-01   9   6   8   3
 -0.1481717053366587E-01   9   6   8   4
 -0.5194904111648591E-01   9   6   9   5
  0.3043419409950183E-01   9   6   9   6
  0.1532321594083541E+00  13  10   7   1
 -0.3057945799361188E-01  13  10   7   2
 -0.3786002715808068E-01  13  10   7   3
 -0.1097987562468867E+00  13  10   7   4
 -0.4445599472824446E-01  13  10   8   1
  0.9899761270105099E-01  13  10   8   2
  0.1271285277495749E-01  13  10   8   3
  0.3698417973143860E-01  13  10   8   4
  0.1097987514117099E+00  13  10   9   5
 -0.3698417810785571E-01  13  10   9   6
  0.1540219879198743E+00  13  10  13  10
 -0.5222316851521485E-01  13  11   7   1
  0.3070952709761478E-01  13  11   7   2
  0.1271285277591287E-01  13  11   7   3
  0.3698417973144661E-01  13  11   7   4
  0.3130309464938188E-01  13  11   8   1
 -0.2946197075952914E-01  13  11   8   2
 -0.5549195770503573E-02  13  11   8   3
 -0.2002284452417065E-01  13  11   8   4
 -0.3698417810786381E-01  13  11   9   5
  0.2002284381547216E-01  13  11   9   6
 -0.5194904111649359E-01  13  11  13  10
  0.3043419409950829E-01  13  11  13  11
  0.5167563009897312E-01   7   5   7   5
 -0.1618352515520038E-01   7   6   7   5
  0.2125621144363433E-01   7   6   7   6
 -0.1618352515520039E-01   8   5   7   5
  0.2125621147822432E-01   8   5   7   6
  0.2125621144363434E-01   8   5   8   5
  0.3397791109328194E-01   8   6   7   5
 -0.5503844836865766E-02   8   6   7   6
 -0.5503844836865761E-02   8   6   8   5
  0.3296867246163492E-01   8   6   8   6
  0.7085890285725471E-01   9   1   7   5
 -0.2142337332405232E-01   9   1   7   6
 -0.2142337332405233E-01   9   1   8   5
  0.3930655295133777E-01   9   1   8   6
  0.1051463042653609E+00   9   1   9   1
 -0.1933351624200842E-01   9   2   7   5
  0.1959649320981536E-01   9   2   7   6
  0.1959649320981532E-01   9   2   8   5
 -0.9408069247803784E-02   9   2   8   6
 -0.2742733998426029E-01   9   2   9   1
  0.2250442505123306E-01   9   2   9   2
 -0.4859317804548245E-01   9   3   7   5
  0.1380815431192793E-01   9   3   7   6
  0.1380815431192791E-01   9   3   8   5
 -0.2581339141144313E-01   9   3   8   6
 -0.7353260026307984E-01   9   3   9   1
  0.1799480316880512E-01   9   3   9   2
  0.6677735878495221E-01   9   3   9   3
 -0.6205926856485931E-08   9   4   7   5
  0.1763465554839332E-08   9   4   7   6
  0.1763465554839331E-08   9   4   8   5
 -0.3296677135775807E-08   9   4   8   6
 -0.9390987730271219E-08   9   4   9   1
  0.2298150414390885E-08   9   4   9   2
  0.4073200258569784E-08   9   4   9   3
  0.3488369488000056E-01   9   4   9   4
  0.4208292663850897E-01  13  12   7   5
 -0.1195821241616189E-01  13  12   7   6
 -0.1195821241616190E-01  13  12   8   5
  0.2235505271836714E-01  13  12   8   6
  0.6368109983475255E-01  13  12   9   1
 -0.1558395667933452E-01  13  12   9   2
 -0.2762072315479436E-01  13  12   9   3
 -0.3527494897771459E-08  13  12   9   4
  0.5880394281162773E-01  13  12  13  12
  0.2004879106815551E+00  10   1  10   1
 -0.3945518142121437E-01  10   2  10   1
  0.5952882942199573E-01  10   2  10   2
  0.1769372569662998E+00  10   3  10   1
 -0.3531011660620741E-01  10   3  10   2
  0.1979921111443902E+00  10   3  10   3
  0.2259699239861611E-07  10   4  10   1
 -0.4509521907491155E-08  10   4  10   2
  0.2246203105779884E-07  10   4  10   3
  0.2211161823855567E-01  10   4  10   4
 -0.5765849765168417E-01  11   1  10   1
  0.5295508632901828E-01  11   1  10   2
 -0.5133336105497476E-01  11   1  10   3
 -0.6555880821472532E-08  11   1  10   4
  0.5007864612555103E-01  11   1  11   1
  0.1362130820845561E+00  11   2  10   1
 -0.8325290684349642E-02  11   2  10   2
  0.1143125966956865E+00  11   2  10   3
  0.1459907835631211E-07  11   2  10   4
 -0.2387659514741684E-01  11   2  11   1
  0.1173833820678381E+00  11   2  11   2
 -0.6030212079489568E-01  11   3  10   1
  0.3546030746435803E-01  11   3  10   2
 -0.6677124432322322E-01  11   3  10   3
 -0.7571886642323765E-08  11   3  10   4
  0.3614570024498237E-01  11   3  11   1
 -0.3401975349886670E-01  11   3  11   2
  0.3884370042000463E-01  11   3  11   3
 -0.7701298124376041E-08  11   4  10   1
  0.4528703066637511E-08  11   4  10   2
 -0.7571886642266038E-08  11   4  10   3
 -0.7482431505931687E-02  11   4  10   4
  0.4616235877512675E-08  11   4  11   1
 -0.4344727189647602E-08  11   4  11   2
  0.4295975951810024E-08  11   4  11   3
  0.5205675168626933E-02  11   4  11   4
  0.1532321594077274E+00  12   5  10   1
 -0.3057945799147329E-01  12   5  10   2
  0.1140185257944609E+00  12   5  10   3
  0.2211163281822436E-01  12   5  10   4
 -0.4445599472804487E-01  12   5  11   1
  0.9899761270033645E-01  12   5  11   2
 -0.3838566557549205E-01  12   5  11   3
 -0.7482436414128166E-02  12   5  11   4
  0.1540219879198808E+00  12   5  12   5
 -0.5222316851499236E-01  12   6  10   1
  0.3070952709689301E-01  12   6  10   2
 -0.3838566557453109E-01  12   6  10   3
 -0.7482436414126473E-02  12   6  10   4
  0.3130309464927637E-01  12   6  11   1
 -0.2946197075079904E-01  12   6  11   2
  0.2011488992480307E-01  12   6  11   3
  0.5205677730019303E-02  12   6  11   4
 -0.5194904111648591E-01  12   6  12   5
  0.3043419409950183E-01  12   6  12   6
  0.1532321594077274E+00  13   7  10   1
 -0.3057945799147329E-01  13   7  10   2
  0.1140185314422942E+00  13   7  10   3
 -0.2211160369517963E-01  13   7  10   4
 -0.4445599472804487E-01  13   7  11   1
  0.9899761270033645E-01  13   7  11   2
 -0.3838566748668307E-01  13   7  11   3
  0.7482426609515737E-02  13   7  11   4
  0.1097987514117122E+00  13   7  12   5
 -0.3698417810785690E-01  13   7  12   6
  0.1540219879198808E+00  13   7  13   7
 -0.5222316851499236E-01  13   8  10   1
  0.3070952709689301E-01  13   8  10   2
 -0.3838566748572210E-01  13   8  10   3
  0.7482426609514040E-02  13   8  10   4
  0.3130309464927637E-01  13   8  11   1
 -0.2946197075079904E-01  13   8  11   2
  0.2011489125445635E-01  13   8  11   3
 -0.5205672592197709E-02  13   8  11   4
 -0.3698417810785692E-01  13   8  12   5
  0.2002284381546978E-01  13   8  12   6
 -0.5194904111648591E-01  13   8  13   7
  0.3043419409950183E-01  13   8  13   8
  0.5167563009897110E-01  10   5  10   5
 -0.1618352515519693E-01  10   6  10   5
  0.2125621144363363E-01  10   6  10   6
 -0.1618352515520228E-01  11   5  10   5
  0.2125621147822500E-01  11   5  10   6
  0.2125621144363635E-01  11   5  11   5
  0.3397791109328260E-01  11   6  10   5
 -0.5503844836865041E-02  11   6  10   6
 -0.5503844836869199E-02  11   6  11   5
  0.3296867246163564E-01  11   6  11   6
  0.7085890285695234E-01  12   1  10   5
 -0.2142337332396434E-01  12   1  10   6
 -0.2142337332397118E-01  12   1  11   5
  0.3930655295117922E-01  12   1  11   6
  0.1051463042644500E+00  12   1  12   1
 -0.1933351624098299E-01  12   2  10   5
  0.1959649320952377E-01  12   2  10   6
  0.1959649320952551E-01  12   2  11   5
 -0.9408069247260967E-02  12   2  11   6
 -0.2742733998259900E-01  12   2  12   1
  0.2250442505047462E-01  12   2  12   2
  0.2429658364911749E-01  12   3  10   5
 -0.6904075640910186E-02  12   3  10   6
 -0.6904075640912499E-02  12   3  11   5
  0.1290669286075243E-01  12   3  11   6
  0.3676629199964396E-01  12   3  12   1
 -0.8997399590625137E-02  12   3  12   2
  0.4285710733307189E-01  12   3  12   3
  0.4208292973885298E-01  12   4  10   5
 -0.1195821329579871E-01  12   4  10   6
 -0.1195821329580273E-01  12   4  11   5
  0.2235505435781346E-01  12   4  11   6
  0.6368110453007482E-01  12   4  12   1
 -0.1558395782782743E-01  12   4  12   2
  0.1381035952389005E-01  12   4  12   3
  0.5880394633912243E-01  12   4  12   4
  0.4208292663588988E-01  13   9  10   5
 -0.1195821241406602E-01  13   9  10   6
 -0.1195821241407003E-01  13   9  11   5
  0.2235505270947507E-01  13   9  11   6
  0.6368109983458145E-01  13   9  12   1
 -0.1558395668185894E-01  13   9  12   2
  0.1381035851559032E-01  13   9  12   3
  0.2392024968712129E-01  13   9  12   4
  0.5880394281162775E-01  13   9  13   9
  0.5167563009897110E-01  10   7  10   7
 -0.1618352515519693E-01  10   8  10   7
  0.2125621144363363E-01  10   8  10   8
 -0.1618352515520228E-01  11   7  10   7
  0.2125621147822500E-01  11   7  10   8
  0.2125621144363635E-01  11   7  11   7
  0.3397791109328260E-01  11   8  10   7
 -0.5503844836865041E-02  11   8  10   8
 -0.5503844836869199E-02  11   8  11   7
  0.3296867246163564E-01  11   8  11   8
  0.4208292663588988E-01  12   9  10   7
 -0.1195821241406602E-01  12   9  10   8
 -0.1195821241407003E-01  12   9  11   7
  0.2235505270947507E-01  12   9  11   8
  0.5880394281162775E-01  12   9  12   9
  0.7085890285695234E-01  13   1  10   7
 -0.2142337332396434E-01  13   1  10   8
 -0.2142337332397118E-01  13   1  11   7
  0.3930655295117922E-01  13   1  11   8
  0.6368109983458145E-01  13   1  12   9
  0.1051463042644500E+00  13   1  13   1
 -0.1933351624098301E-01  13   2  10   7
  0.1959649320952380E-01  13   2  10   8
  0.1959649320952555E-01  13   2  11   7
 -0.9408069247261012E-02  13   2  11   8
 -0.1558395668185895E-01  13   2  12   9
 -0.2742733998259900E-01  13   2  13   1
  0.2250442505047462E-01  13   2  13   2
  0.2429659439809811E-01  13   3  10   7
 -0.6904078695322128E-02  13   3  10   8
 -0.6904078695324446E-02  13   3  11   7
  0.1290669857076473E-01  13   3  11   8
  0.1381036462539071E-01  13   3  12   9
  0.3676630826531185E-01  13   3  13   1
 -0.8997403571138417E-02  13   3  13   2
  0.4285711438806168E-01  13   3  13   3
 -0.4208292353292611E-01  13   4  10   7
  0.1195821153233314E-01  13   4  10   8
  0.1195821153233715E-01  13   4  11   7
 -0.2235505106113630E-01  13   4  11   8
 -0.2392024615962640E-01  13   4  12   9
 -0.6368109513908710E-01  13   4  13   1
  0.1558395552967709E-01  13   4  13   2
 -0.1381036359709031E-01  13   4  13   3
  0.5880393928413264E-01  13   4  13   4
  0.2211161823855279E-01  10   9  10   9
 -0.7482431505930716E-02  11   9  10   9
  0.5205675168626384E-02  11   9  11   9
  0.2211161825670217E-01  12   7  10   9
 -0.7482431511822017E-02  12   7  11   9
  0.2211161823855373E-01  12   7  12   7
 -0.7482431511820321E-02  12   8  10   9
  0.5205675161108549E-02  12   8  11   9
 -0.7482431505929671E-02  12   8  12   7
  0.5205675168625462E-02  12   8  12   8
  0.2211161825670217E-01  13   5  10   9
 -0.7482431511822017E-02  13   5  11   9
  0.2211161825408427E-01  13   5  12   7
 -0.7482431509726139E-02  13   5  12   8
  0.2211161823855373E-01  13   5  13   5
 -0.7482431511820321E-02  13   6  10   9
  0.5205675161108549E-02  13   6  11   9
 -0.7482431509726144E-02  13   6  12   7
  0.5205675152215227E-02  13   6  12   8
 -0.7482431505929671E-02  13   6  13   5
  0.5205675168625462E-02  13   6  13   6
 -0.8302432839040046E+01   1   1   0   0
  0.1430835376582047E+01   2   1   0   0
 -0.4035836555911327E+01   2   2   0   0
 -0.4405783127019955E-10   3   1   0   0
  0.2860584262997508E-10   3   2   0   0
 -0.2400324983940742E+01   3   3   0   0
 -0.5259104998979423E-17   4   1   0   0
  0.2660549569343752E-17   4   2   0   0
 -0.9623258078187923E-19   4   3   0   0
 -0.2400324983940704E+01   4   4   0   0
 -0.7307433768759869E+01   5   5   0   0
  0.1730346227981143E+01   6   5   0   0
 -0.4287388315489498E+01   6   6   0   0
 -0.7307433768759869E+01   7   7   0   0
  0.1730346227981143E+01   8   7   0   0
 -0.4287388315489498E+01   8   8   0   0
 -0.2400324983940707E+01   9   9   0   0
 -0.7307433768759545E+01  10  10   0   0
  0.1730346227981240E+01  11  10   0   0
 -0.4287388315489665E+01  11  11   0   0
 -0.2400324983940737E+01  12  12   0   0
 -0.2400324983940737E+01  13  13   0   0
 -0.9384895239526656E+02   0   0   0   0
