 &FCI NORB= 2,NELEC= 2,MS2= 0,
  ORBSYM=1,1,
  ISYM=1
 &END
    1.02686462536      1  1  1  1
  -0.316446835443      2  1  1  1
   0.227505158434      2  1  2  1
   0.857592429628      2  2  1  1
  -0.255195296045      2  2  2  1
   0.765494726760      2  2  2  2
   -1.94101255130      1  1  0  0
   0.316446835459      2  1  0  0
  -0.902379965967E-01  2  2  0  0
    0.00000000000      0  0  0  0
