 &FCI NORB= 15,NELEC=  8,MS2= 0,
  ORBSYM=1,1,1,1,1,1,1,1,2,2,2,3,3,3,4,
  ISYM=1,
 /
  0.8806002825135940E+00   1   1   1   1
  0.6728195793652495E-02   2   1   1   1
  0.1624450161380609E+00   2   1   2   1
  0.7887740205590444E+00   2   2   1   1
 -0.3630361561039845E-01   2   2   2   1
  0.7915692537470698E+00   2   2   2   2
 -0.1067556352838945E+00   3   1   1   1
 -0.2811940951203996E-01   3   1   2   1
 -0.6532918877781391E-01   3   1   2   2
  0.3499621397182640E-01   3   1   3   1
 -0.9720305715978103E-01   3   2   1   1
  0.2074654434700384E-01   3   2   2   1
 -0.8183131532409055E-01   3   2   2   2
  0.2559757686364389E-01   3   2   3   1
  0.4156367055052568E-01   3   2   3   2
  0.3965210930096676E+00   3   3   1   1
  0.4800992508984143E-01   3   3   2   1
  0.3886020982641358E+00   3   3   2   2
 -0.1401613861310275E-01   3   3   3   1
  0.1360579053431549E-01   3   3   3   2
  0.3665473535675851E+00   3   3   3   3
 -0.6197003276764138E-01   4   1   1   1
 -0.1656993348905736E-01   4   1   2   1
 -0.3740930173762817E-03   4   1   2   2
  0.3211290206667242E-01   4   1   3   1
  0.2334083046944705E-01   4   1   3   2
  0.1921035506340270E-02   4   1   3   3
  0.5360994208739939E-01   4   1   4   1
 -0.8375074127105475E-01   4   2   1   1
  0.9078867540177046E-01   4   2   2   1
 -0.6908512354018759E-01   4   2   2   2
  0.2162359703757932E-01   4   2   3   1
  0.5753721765527151E-01   4   2   3   2
  0.3362086233675475E-01   4   2   3   3
  0.4333938488660058E-01   4   2   4   1
  0.1344882725476146E+00   4   2   4   2
  0.1266357346010570E+00   4   3   1   1
  0.1941407485520677E-01   4   3   2   1
  0.1241859018623377E+00   4   3   2   2
 -0.1732599704866904E-01   4   3   3   1
 -0.9411146118656254E-02   4   3   3   2
  0.4434364288177198E-01   4   3   3   3
  0.3603051308275533E-02   4   3   4   1
  0.1323016910092070E-01   4   3   4   2
  0.4721073775685258E-01   4   3   4   3
  0.5931889494584270E+00   4   4   1   1
  0.9595185742441303E-01   4   4   2   1
  0.6051137225539331E+00   4   4   2   2
 -0.3203119489030576E-01   4   4   3   1
  0.5672943872082836E-02   4   4   3   2
  0.4172688352939457E+00   4   4   3   3
  0.4443256411953145E-01   4   4   4   1
  0.1127566707632938E+00   4   4   4   2
  0.1262422231690220E+00   4   4   4   3
  0.7073381781904913E+00   4   4   4   4
  0.2257384996776647E-01   5   1   1   1
 -0.4401243601805963E-01   5   1   2   1
  0.3499837893416431E-01   5   1   2   2
  0.9688711631603706E-02   5   1   3   1
  0.5537793401158127E-02   5   1   3   2
  0.3945519792021440E-02   5   1   3   3
  0.1282102048654808E-01   5   1   4   1
 -0.9638215289835458E-02   5   1   4   2
 -0.1371600213930513E-02   5   1   4   3
  0.7769177755850148E-02   5   1   4   4
  0.4106035488984312E-01   5   1   5   1
 -0.1914397004332351E+00   5   2   1   1
  0.1685253721053104E-01   5   2   2   1
 -0.1761588052358115E+00   5   2   2   2
  0.4045962179054366E-01   5   2   3   1
  0.3803830084812096E-01   5   2   3   2
 -0.3728131127401948E-01   5   2   3   3
  0.2199509734272331E-01   5   2   4   1
  0.5280502131243382E-01   5   2   4   2
 -0.3558430797369436E-01   5   2   4   3
 -0.8461830640936507E-01   5   2   4   4
 -0.3234910731002929E-01   5   2   5   1
  0.1364628394891571E+00   5   2   5   2
  0.6552415765854228E-01   5   3   1   1
  0.2784205065777180E-01   5   3   2   1
  0.5098177992521662E-01   5   3   2   2
 -0.1775228957640999E-01   5   3   3   1
 -0.5463078762781376E-02   5   3   3   2
  0.2822916083733090E-01   5   3   3   3
 -0.1235963704656666E-01   5   3   4   1
 -0.4665873214523466E-03   5   3   4   2
  0.1325898434131451E-01   5   3   4   3
  0.4681025130441330E-01   5   3   4   4
  0.3734016706838131E-02   5   3   5   1
 -0.4161798809370167E-01   5   3   5   2
  0.2352679818708279E-01   5   3   5   3
  0.9036723547699625E-01   5   4   1   1
  0.1599784019518593E-02   5   4   2   1
  0.7918307295522649E-01   5   4   2   2
 -0.2172733085268436E-01   5   4   3   1
 -0.1817554170117662E-01   5   4   3   2
  0.1992057102590845E-01   5   4   3   3
 -0.1548132348095376E-01   5   4   4   1
 -0.2576963634587986E-01   5   4   4   2
  0.1710433975697773E-01   5   4   4   3
  0.3556031297757092E-01   5   4   4   4
  0.1141048922979976E-01   5   4   5   1
 -0.6504665669579392E-01   5   4   5   2
  0.2327447623214169E-01   5   4   5   3
  0.3498698965645942E-01   5   4   5   4
  0.6726677743690614E+00   5   5   1   1
 -0.9513254625874087E-01   5   5   2   1
  0.6791439533631802E+00   5   5   2   2
 -0.4875015854787351E-01   5   5   3   1
 -0.9341171904088760E-01   5   5   3   2
  0.3217531114734407E+00   5   5   3   3
 -0.1706564924080559E-01   5   5   4   1
 -0.1250320312449370E+00   5   5   4   2
  0.8910611962979265E-01   5   5   4   3
  0.4475511364231637E+00   5   5   4   4
  0.2040536938271406E-01   5   5   5   1
 -0.1268379533075796E+00   5   5   5   2
  0.1728872956462552E-01   5   5   5   3
  0.5490234927147375E-01   5   5   5   4
  0.6923711726882145E+00   5   5   5   5
 -0.1636511930299289E+00   6   1   1   1
  0.6784150860048644E-02   6   1   2   1
 -0.1361734547928478E+00   6   1   2   2
  0.4402004210637436E-01   6   1   3   1
  0.4006922226874195E-01   6   1   3   2
 -0.2713380957519860E-01   6   1   3   3
  0.3030287477487897E-01   6   1   4   1
  0.5379268828385944E-01   6   1   4   2
 -0.3527485861193457E-01   6   1   4   3
 -0.5748924886915412E-01   6   1   4   4
 -0.3988526871755646E-02   6   1   5   1
  0.9851218614469767E-01   6   1   5   2
 -0.2852846100554393E-01   6   1   5   3
 -0.4743089732686562E-01   6   1   5   4
 -0.1181211719769104E+00   6   1   5   5
  0.1070951152191491E+00   6   1   6   1
  0.4693865043223560E-02   6   2   1   1
 -0.3626139155797454E-01   6   2   2   1
  0.2514440328337955E-01   6   2   2   2
  0.1348896191721923E-01   6   2   3   1
  0.5437516988278655E-02   6   2   3   2
 -0.4102323385877693E-02   6   2   3   3
  0.1911173482247881E-01   6   2   4   1
 -0.3961088201412572E-02   6   2   4   2
 -0.4306547253573453E-02   6   2   4   3
  0.3528381383411772E-02   6   2   4   4
  0.3451673246661441E-01   6   2   5   1
 -0.1330346412817066E-01   6   2   5   2
 -0.1699986070767615E-02   6   2   5   3
  0.2591717300766898E-02   6   2   5   4
  0.1568935833599013E-01   6   2   5   5
  0.9452647280328120E-02   6   2   6   1
  0.3532958654147660E-01   6   2   6   2
  0.1144292665771246E+00   6   3   1   1
  0.8384629014448709E-02   6   3   2   1
  0.8508070371540588E-01   6   3   2   2
 -0.2787157489388821E-01   6   3   3   1
 -0.3019788387886125E-01   6   3   3   2
  0.5150341612148363E-02   6   3   3   3
 -0.2595852468799027E-01   6   3   4   1
 -0.2954419226105028E-01   6   3   4   2
  0.1859281477968167E-01   6   3   4   3
  0.3705347677437990E-01   6   3   4   4
 -0.8319345126371024E-02   6   3   5   1
 -0.3224114960913727E-01   6   3   5   2
  0.1316667123791906E-01   6   3   5   3
  0.1799642361170320E-01   6   3   5   4
  0.8216282634454783E-01   6   3   5   5
 -0.3580072500612461E-01   6   3   6   1
 -0.9011088269218613E-02   6   3   6   2
  0.3695188601808393E-01   6   3   6   3
  0.4248009678421125E-01   6   4   1   1
  0.2712065822308129E-01   6   4   2   1
  0.2180619370146157E-01   6   4   2   2
 -0.2183898041872536E-01   6   4   3   1
 -0.1417773948312140E-01   6   4   3   2
  0.7232619220131579E-02   6   4   3   3
 -0.1837116399937988E-01   6   4   4   1
 -0.1015560185778473E-01   6   4   4   2
  0.8699468732769524E-02   6   4   4   3
  0.9371624839454130E-02   6   4   4   4
 -0.1572108783794609E-01   6   4   5   1
 -0.1923939587237617E-01   6   4   5   2
  0.1167467119879489E-01   6   4   5   3
  0.1374139133109874E-01   6   4   5   4
  0.1696784743429994E-01   6   4   5   5
 -0.3473282264440430E-01   6   4   6   1
 -0.1633409379749370E-01   6   4   6   2
  0.1584674686103393E-01   6   4   6   3
  0.2517055140230764E-01   6   4   6   4
  0.1150537712400948E-01   6   5   1   1
  0.8491389409422334E-01   6   5   2   1
 -0.1994721641285345E-01   6   5   2   2
 -0.1939326878185586E-01   6   5   3   1
  0.7487555627509995E-02   6   5   3   2
  0.2688583168503063E-01   6   5   3   3
 -0.2015409770642570E-01   6   5   4   1
  0.3418330168847434E-01   6   5   4   2
  0.9050597280474144E-02   6   5   4   3
  0.3897185871238343E-01   6   5   4   4
 -0.2545073168997117E-01   6   5   5   1
  0.2941852296096194E-02   6   5   5   2
  0.1987576048741987E-01   6   5   5   3
  0.5474369173284416E-02   6   5   5   4
 -0.4918236736183258E-01   6   5   5   5
 -0.3269366960624208E-02   6   5   6   1
 -0.2342058180485572E-01   6   5   6   2
  0.9755230271524497E-02   6   5   6   3
  0.1833992312883832E-01   6   5   6   4
  0.5421420362996764E-01   6   5   6   5
  0.7224241650366757E+00   6   6   1   1
  0.1981161820126705E-01   6   6   2   1
  0.6478797914501890E+00   6   6   2   2
 -0.7641168906678159E-01   6   6   3   1
 -0.6459360410284043E-01   6   6   3   2
  0.3790255692399868E+00   6   6   3   3
 -0.5378956303584150E-01   6   6   4   1
 -0.5549547022342677E-01   6   6   4   2
  0.9443746352423910E-01   6   6   4   3
  0.5197944324676467E+00   6   6   4   4
  0.1414102661227326E-01   6   6   5   1
 -0.1362095463446978E+00   6   6   5   2
  0.5419463390906307E-01   6   6   5   3
  0.6814284052342467E-01   6   6   5   4
  0.5674374076962798E+00   6   6   5   5
 -0.1071668728194127E+00   6   6   6   1
 -0.7346789042800284E-04   6   6   6   2
  0.8945164681650475E-01   6   6   6   3
  0.2630434342383170E-01   6   6   6   4
  0.2237954109517604E-01   6   6   6   5
  0.6352811824837532E+00   6   6   6   6
  0.4629319205231166E-16   7   1   1   1
 -0.4221946849050054E-17   7   1   2   1
  0.5161023786548849E-16   7   1   2   2
 -0.8976194065228739E-17   7   1   3   1
 -0.1404423423380698E-16   7   1   3   2
  0.7884734546996142E-17   7   1   3   3
 -0.9225054125053808E-18   7   1   4   1
 -0.1878014947998687E-16   7   1   4   2
  0.1100025943421796E-16   7   1   4   3
  0.2206257726518463E-16   7   1   4   4
  0.3490999789228004E-17   7   1   5   1
 -0.3217188818050843E-16   7   1   5   2
  0.8648827631833731E-17   7   1   5   3
  0.1515662207594039E-16   7   1   5   4
  0.4267714190842255E-16   7   1   5   5
 -0.1483450198635715E-16   7   1   6   1
 -0.2343411647221082E-17   7   1   6   2
  0.5448074574609859E-17   7   1   6   3
  0.3704867560559239E-17   7   1   6   4
 -0.5934756276672101E-18   7   1   6   5
  0.2653807789407945E-16   7   1   6   6
  0.8304177363156061E-01   7   1   7   1
 -0.9448602547736542E-17   7   2   1   1
  0.3605382162950128E-16   7   2   2   1
 -0.2907127168852184E-16   7   2   2   2
 -0.7560310096351387E-17   7   2   3   1
  0.4330414196782409E-17   7   2   3   2
  0.3501470579057251E-17   7   2   3   3
 -0.1079612163592123E-16   7   2   4   1
  0.1991699207487873E-16   7   2   4   2
 -0.2182488710911764E-18   7   2   4   3
  0.2210829035259741E-17   7   2   4   4
 -0.1880471939183416E-16   7   2   5   1
  0.1778046808234434E-16   7   2   5   2
  0.7018024944600825E-18   7   2   5   3
 -0.6572311162552400E-17   7   2   5   4
 -0.3138388623789871E-16   7   2   5   5
  0.2793858289693813E-17   7   2   6   1
 -0.1382769286669944E-16   7   2   6   2
  0.2946040197603502E-17   7   2   6   3
  0.7322548526296772E-17   7   2   6   4
  0.1821587963429194E-16   7   2   6   5
 -0.3295043213269734E-17   7   2   6   6
 -0.1972561042357497E-01   7   2   7   1
  0.2053108286888315E-01   7   2   7   2
 -0.1316433747216972E-16   7   3   1   1
 -0.9716166140345987E-17   7   3   2   1
 -0.6988765682656439E-17   7   3   2   2
  0.5089780207986816E-17   7   3   3   1
  0.4348505841180870E-17   7   3   3   2
 -0.4253606827711932E-18   7   3   3   3
  0.5204117799638288E-17   7   3   4   1
  0.1015055694163477E-17   7   3   4   2
 -0.2382267345319759E-17   7   3   4   3
 -0.5318743367807107E-17   7   3   4   4
  0.5440664090307017E-17   7   3   5   1
  0.1085936313686857E-17   7   3   5   2
 -0.2224590804162643E-17   7   3   5   3
 -0.1477094139893122E-17   7   3   5   4
 -0.6958910436060302E-17   7   3   5   5
  0.6900552691295963E-18   7   3   6   1
  0.4510350194753244E-17   7   3   6   2
 -0.5650099945392619E-17   7   3   6   3
 -0.2588800593377219E-17   7   3   6   4
 -0.5751826603357814E-17   7   3   6   5
 -0.1058712686151195E-16   7   3   6   6
 -0.1565808759283387E-01   7   3   7   1
 -0.9506402957088816E-03   7   3   7   2
  0.4602893389764638E-02   7   3   7   3
  0.4924217282351911E-16   7   4   1   1
 -0.1736361479435415E-16   7   4   2   1
  0.5523849276535076E-16   7   4   2   2
  0.7737250029998386E-18   7   4   3   1
 -0.4011345512388201E-17   7   4   3   2
  0.2369560968517863E-16   7   4   3   3
  0.4497135324030430E-17   7   4   4   1
 -0.7679369446215947E-17   7   4   4   2
  0.5826584622663546E-17   7   4   4   3
  0.3701870434979256E-16   7   4   4   4
  0.9744144521421724E-17   7   4   5   1
 -0.1167667730027939E-16   7   4   5   2
  0.6703278297519425E-18   7   4   5   3
  0.3729182850603159E-17   7   4   5   4
  0.4901590363864725E-16   7   4   5   5
 -0.7068425178696011E-17   7   4   6   1
  0.8367355032989731E-17   7   4   6   2
  0.3675595000533859E-17   7   4   6   3
 -0.3803623859511023E-17   7   4   6   4
 -0.9786320505211953E-17   7   4   6   5
  0.4151543920707108E-16   7   4   6   6
 -0.2214265727451675E-01   7   4   7   1
 -0.1632868770196220E-02   7   4   7   2
  0.6313227168024292E-02   7   4   7   3
  0.9767286107947661E-02   7   4   7   4
  0.4805842495519495E-16   7   5   1   1
 -0.3932713579656793E-16   7   5   2   1
  0.6217650033350541E-16   7   5   2   2
  0.3206615400039982E-17   7   5   3   1
 -0.1033338701173193E-16   7   5   3   2
  0.1431219229454821E-16   7   5   3   3
  0.6488925111266795E-17   7   5   4   1
 -0.2435122342827739E-16   7   5   4   2
  0.4344473685684554E-17   7   5   4   3
  0.2059662802983965E-16   7   5   4   4
  0.1467675725917646E-16   7   5   5   1
 -0.1920496509631959E-16   7   5   5   2
 -0.2989950374941731E-17   7   5   5   3
  0.6809834002772271E-17   7   5   5   4
  0.7166138466232262E-16   7   5   5   5
 -0.9000102314232814E-17   7   5   6   1
  0.1102261911704320E-16   7   5   6   2
  0.2292166257637296E-17   7   5   6   3
 -0.5883045723222578E-17   7   5   6   4
 -0.2245602666358173E-16   7   5   6   5
  0.3507972494305116E-16   7   5   6   6
  0.1335739360467498E-01   7   5   7   1
 -0.7686831837182978E-02   7   5   7   2
 -0.1330840203479918E-02   7   5   7   3
 -0.1372337988361456E-02   7   5   7   4
  0.6787663292841785E-02   7   5   7   5
 -0.4063647819574670E-16   7   6   1   1
 -0.6648352558575050E-17   7   6   2   1
 -0.4833794941004887E-16   7   6   2   2
  0.1180115705321043E-17   7   6   3   1
  0.3175465401322431E-17   7   6   3   2
 -0.3420956447005489E-16   7   6   3   3
 -0.1661775538137129E-17   7   6   4   1
  0.1853893350585960E-17   7   6   4   2
 -0.5401808772137613E-17   7   6   4   3
 -0.4370883945707699E-16   7   6   4   4
  0.1080802845977669E-17   7   6   5   1
  0.9206065478482096E-17   7   6   5   2
 -0.5339748904684961E-17   7   6   5   3
 -0.5809579406619688E-17   7   6   5   4
 -0.4381952022990726E-16   7   6   5   5
  0.2534320652940640E-17   7   6   6   1
  0.9935251606418123E-18   7   6   6   2
 -0.3951292463382220E-17   7   6   6   3
 -0.7166774716539562E-19   7   6   6   4
 -0.4678270011080858E-17   7   6   6   5
 -0.3862638269253121E-16   7   6   6   6
 -0.4849116980785949E-02   7   6   7   1
  0.1541237387600683E-02   7   6   7   2
  0.2602766562406684E-02   7   6   7   3
  0.2449618500482760E-03   7   6   7   4
 -0.2975617577741126E-02   7   6   7   5
  0.1745479698645354E-01   7   6   7   6
  0.8729597795775458E+00   7   7   1   1
 -0.5489331505775533E-01   7   7   2   1
  0.7537012548065254E+00   7   7   2   2
 -0.9691529495486009E-01   7   7   3   1
 -0.9288556466048220E-01   7   7   3   2
  0.3724063675421694E+00   7   7   3   3
 -0.7407888109765640E-01   7   7   4   1
 -0.1036913896749065E+00   7   7   4   2
  0.1095627115596778E+00   7   7   4   3
  0.5333052568055734E+00   7   7   4   4
  0.4216219416423928E-01   7   7   5   1
 -0.1700685174685591E+00   7   7   5   2
  0.4676795701840523E-01   7   7   5   3
  0.7496925195345838E-01   7   7   5   4
  0.6637931998698984E+00   7   7   5   5
 -0.1373699343134098E+00   7   7   6   1
  0.1558789851684272E-01   7   7   6   2
  0.1069025383141095E+00   7   7   6   3
  0.2342863298992892E-01   7   7   6   4
 -0.1829027542908829E-01   7   7   6   5
  0.7102956598249596E+00   7   7   6   6
  0.1298483896219627E-16   7   7   7   1
 -0.8126262490585836E-17   7   7   7   2
 -0.5341400855236400E-17   7   7   7   3
  0.6078094850550444E-16   7   7   7   4
  0.5444759228217932E-16   7   7   7   5
 -0.2642537697027080E-16   7   7   7   6
  0.9848570277322501E+00   7   7   7   7
  0.8639605967329314E-02   8   1   1   1
  0.2629417426628997E-01   8   1   2   1
  0.5002903925793414E-01   8   1   2   2
 -0.3502119113387077E-02   8   1   3   1
 -0.1604175891481981E-01   8   1   3   2
  0.7470162866332069E-02   8   1   3   3
  0.1644332605121615E-01   8   1   4   1
 -0.8571470525648481E-02   8   1   4   2
  0.6379614045377742E-02   8   1   4   3
  0.2380886922552480E-01   8   1   4   4
 -0.1532802360730658E-01   8   1   5   1
 -0.1303816992788157E-01   8   1   5   2
  0.9325446674978904E-02   8   1   5   3
  0.8343793525471779E-02   8   1   5   4
  0.2404240571011538E-01   8   1   5   5
 -0.7728290444867959E-02   8   1   6   1
 -0.3670508629230477E-02   8   1   6   2
  0.4383361412219266E-02   8   1   6   3
  0.6928340718243345E-02   8   1   6   4
  0.1147009830007406E-01   8   1   6   5
  0.1914646441573179E-02   8   1   6   6
  0.3210945556300220E-18   8   1   7   1
 -0.1366312936109534E-17   8   1   7   2
  0.1784899555696703E-19   8   1   7   3
  0.5333535870022881E-17   8   1   7   4
 -0.2875608111876460E-17   8   1   7   5
 -0.1446425595988616E-16   8   1   7   6
 -0.5747610049581281E-01   8   1   7   7
  0.8066609732903214E-01   8   1   8   1
  0.4680092253194606E-01   8   2   1   1
  0.1040559548313706E+00   8   2   2   1
 -0.2375435269047789E-01   8   2   2   2
 -0.3739457261339513E-01   8   2   3   1
 -0.3751419402334547E-02   8   2   3   2
  0.1710109879239726E-01   8   2   3   3
 -0.4094469688725315E-01   8   2   4   1
  0.3567205121477975E-01   8   2   4   2
  0.2997890542498355E-02   8   2   4   3
  0.1843592188683668E-01   8   2   4   4
 -0.3264778331252153E-01   8   2   5   1
  0.1669697609250790E-02   8   2   5   2
  0.1889231298541460E-01   8   2   5   3
  0.4787261427121735E-02   8   2   5   4
 -0.4490852198225803E-01   8   2   5   5
 -0.8236494998832781E-02   8   2   6   1
 -0.3281585941894839E-01   8   2   6   2
  0.2267308095998422E-01   8   2   6   3
  0.2698259767905492E-01   8   2   6   4
  0.5527067120381879E-01   8   2   6   5
  0.4166666699224023E-01   8   2   6   6
 -0.5722444450836549E-17   8   2   7   1
  0.3291745865905787E-16   8   2   7   2
 -0.9875553929591959E-17   8   2   7   3
 -0.1362490933287952E-16   8   2   7   4
 -0.2695950748446289E-16   8   2   7   5
  0.1641906112691095E-17   8   2   7   6
  0.3235006074343487E-01   8   2   7   7
 -0.4569986344410508E-02   8   2   8   1
  0.1206379376187275E+00   8   2   8   2
 -0.3566232632512683E-02   8   3   1   1
 -0.4860653431033482E-01   8   3   2   1
 -0.2429057526668939E-02   8   3   2   2
  0.5963175030832627E-02   8   3   3   1
 -0.7689435013675271E-02   8   3   3   2
 -0.2189220370625805E-01   8   3   3   3
 -0.3101404300646567E-02   8   3   4   1
 -0.3292015128507753E-01   8   3   4   2
 -0.1255675339707243E-01   8   3   4   3
 -0.4418422388363172E-01   8   3   4   4
  0.1502325193986544E-01   8   3   5   1
 -0.2180931649168747E-02   8   3   5   2
 -0.7525542519335225E-02   8   3   5   3
 -0.9190416497147011E-03   8   3   5   4
  0.1944396422829098E-01   8   3   5   5
  0.8975278118184792E-03   8   3   6   1
  0.1368075656677288E-01   8   3   6   2
  0.8422911679303313E-03   8   3   6   3
 -0.7074189552719178E-02   8   3   6   4
 -0.2312106602812149E-01   8   3   6   5
 -0.5282559037066670E-02   8   3   6   6
  0.1898196897813121E-17   8   3   7   1
 -0.1107556623169003E-16   8   3   7   2
  0.1871722494507477E-17   8   3   7   3
  0.3778663802521905E-17   8   3   7   4
  0.1081864557012219E-16   8   3   7   5
  0.3351127033833581E-17   8   3   7   6
  0.2256387953727983E-01   8   3   7   7
 -0.1655992987954951E-01   8   3   8   1
 -0.3124433858692908E-01   8   3   8   2
  0.2146327663800281E-01   8   3   8   3
  0.7340506040612230E-01   8   4   1   1
 -0.7180736903693469E-01   8   4   2   1
  0.7225280459941946E-01   8   4   2   2
 -0.7930066499786826E-02   8   4   3   1
 -0.3394547426723778E-01   8   4   3   2
 -0.2024082518554771E-01   8   4   3   3
 -0.1212642988865347E-01   8   4   4   1
 -0.7505528701958665E-01   8   4   4   2
 -0.5757758596433002E-02   8   4   4   3
 -0.4641412015257879E-01   8   4   4   4
  0.1937907714229226E-01   8   4   5   1
 -0.3062957816846193E-01   8   4   5   2
 -0.4138890303538600E-02   8   4   5   3
  0.1227503297729482E-01   8   4   5   4
  0.8994942285150413E-01   8   4   5   5
 -0.2350306285573897E-01   8   4   6   1
  0.1850695541882429E-01   8   4   6   2
  0.1507341199043351E-01   8   4   6   3
 -0.1125241866014998E-02   8   4   6   4
 -0.3488947342273490E-01   8   4   6   5
  0.4318756106759827E-01   8   4   6   6
  0.1466018364200535E-16   8   4   7   1
 -0.1885613886963875E-16   8   4   7   2
  0.6635854266290458E-18   8   4   7   3
  0.9238289138395277E-17   8   4   7   4
  0.2125689115446604E-16   8   4   7   5
  0.1653954584832492E-17   8   4   7   6
  0.9899881536021557E-01   8   4   7   7
  0.9649568778292671E-03   8   4   8   1
 -0.3808531655366354E-01   8   4   8   2
  0.2833150434212608E-01   8   4   8   3
  0.6339513159120429E-01   8   4   8   4
 -0.4159857547182551E-01   8   5   1   1
 -0.4177354620858274E-01   8   5   2   1
 -0.9756595405698404E-02   8   5   2   2
  0.1992225037228599E-01   8   5   3   1
  0.6149354390232988E-02   8   5   3   2
 -0.1366556521311842E-01   8   5   3   3
  0.1924935248508359E-01   8   5   4   1
 -0.9824477242002442E-02   8   5   4   2
 -0.8686161280868288E-02   8   5   4   3
 -0.2224278911455446E-01   8   5   4   4
  0.2152074778262113E-01   8   5   5   1
 -0.2059352222371569E-02   8   5   5   2
 -0.7944609967261110E-02   8   5   5   3
 -0.7752385800259450E-03   8   5   5   4
  0.4518933805910812E-02   8   5   5   5
  0.1358794591484304E-01   8   5   6   1
  0.2190375895968050E-01   8   5   6   2
 -0.1422358473044064E-01   8   5   6   3
 -0.1683752673388574E-01   8   5   6   4
 -0.2529622892017838E-01   8   5   6   5
 -0.3062354602585977E-01   8   5   6   6
 -0.1887160423410755E-17   8   5   7   1
 -0.1550228869548529E-16   8   5   7   2
  0.5258955698065965E-17   8   5   7   3
  0.6493190734529294E-17   8   5   7   4
  0.1231784940594674E-16   8   5   7   5
 -0.1244433022592535E-17   8   5   7   6
 -0.3544232662705184E-01   8   5   7   7
 -0.6560112206979024E-05   8   5   8   1
 -0.4776416720161646E-01   8   5   8   2
  0.1369995519240316E-01   8   5   8   3
  0.1366596147961757E-01   8   5   8   4
  0.3113308129974970E-01   8   5   8   5
 -0.2710617541448073E-01   8   6   1   1
  0.3824942893052740E-02   8   6   2   1
 -0.3647784238513620E-01   8   6   2   2
  0.7256058623413304E-02   8   6   3   1
  0.1666863404652213E-01   8   6   3   2
  0.1851640074308637E-02   8   6   3   3
  0.2962046786594034E-02   8   6   4   1
  0.2206334167643842E-01   8   6   4   2
 -0.3939548948755013E-02   8   6   4   3
 -0.1523288489034727E-02   8   6   4   4
  0.6119184434707300E-02   8   6   5   1
  0.1916089191539181E-01   8   6   5   2
 -0.5274189648261338E-02   8   6   5   3
 -0.1024860928780176E-01   8   6   5   4
 -0.3116359229139842E-01   8   6   5   5
  0.1152529796599241E-01   8   6   6   1
  0.6047232387336409E-02   8   6   6   2
 -0.8249788348130206E-02   8   6   6   3
 -0.3306440362809608E-02   8   6   6   4
  0.2261145881356126E-03   8   6   6   5
 -0.1724483369474036E-01   8   6   6   6
 -0.1834344527887776E-16   8   6   7   1
  0.5529109615082121E-17   8   6   7   2
  0.3200844470502010E-17   8   6   7   3
  0.9481409425685659E-18   8   6   7   4
 -0.5262163893646329E-17   8   6   7   5
  0.3030151999424442E-17   8   6   7   6
 -0.1465555649128054E-01   8   6   7   7
 -0.2755776530382877E-01   8   6   8   1
  0.3026269966918594E-02   8   6   8   2
  0.3023211691427476E-02   8   6   8   3
 -0.9976849702105311E-02   8   6   8   4
  0.1446141658664971E-03   8   6   8   5
  0.2247294437301491E-01   8   6   8   6
 -0.4775281649826417E-17   8   7   1   1
 -0.1083091242787396E-16   8   7   2   1
  0.2014936637669543E-16   8   7   2   2
  0.2486791555894220E-17   8   7   3   1
 -0.6733871805720121E-17   8   7   3   2
 -0.5412218792212397E-17   8   7   3   3
  0.1067327147625624E-16   8   7   4   1
 -0.1088666587809348E-16   8   7   4   2
  0.1684481147366690E-17   8   7   4   3
 -0.1067797977873297E-17   8   7   4   4
 -0.3609707976414057E-18   8   7   5   1
 -0.9528774217703946E-17   8   7   5   2
  0.7401586741758806E-18   8   7   5   3
  0.4032500879225321E-17   8   7   5   4
  0.1461496257114856E-16   8   7   5   5
 -0.1648630807447793E-16   8   7   6   1
  0.5753206882732821E-17   8   7   6   2
  0.1327086607622287E-17   8   7   6   3
  0.2440297327184924E-17   8   7   6   4
 -0.7572318226827251E-17   8   7   6   5
 -0.7291369437571372E-17   8   7   6   6
 -0.5789360145209402E-01   8   7   7   1
  0.1668264461961434E-01   8   7   7   2
  0.1076311545584154E-01   8   7   7   3
  0.1692312574309287E-01   8   7   7   4
 -0.1090994376938669E-01   8   7   7   5
  0.2964411643873113E-02   8   7   7   6
 -0.1330455849960007E-16   8   7   7   7
  0.3938500241650516E-16   8   7   8   1
 -0.2020440394199261E-16   8   7   8   2
 -0.2399684435010200E-17   8   7   8   3
  0.4983799834911771E-17   8   7   8   4
  0.8849204217499575E-17   8   7   8   5
 -0.3022535811753367E-17   8   7   8   6
  0.5390996461907468E-01   8   7   8   7
  0.8597571355060422E+00   8   8   1   1
 -0.3470607555013998E-01   8   8   2   1
  0.8240970686895456E+00   8   8   2   2
 -0.8797031287845389E-01   8   8   3   1
 -0.1020962228752414E+00   8   8   3   2
  0.3886837932146333E+00   8   8   3   3
 -0.2757636501992192E-01   8   8   4   1
 -0.9727318455080453E-01   8   8   4   2
  0.1264686582444728E+00   8   8   4   3
  0.5962030845073807E+00   8   8   4   4
  0.2880001601189736E-01   8   8   5   1
 -0.1878923100712507E+00   8   8   5   2
  0.5487699699135065E-01   8   8   5   3
  0.8237048673319136E-01   8   8   5   4
  0.6948888891480253E+00   8   8   5   5
 -0.1541093893897432E+00   8   8   6   1
  0.1688615865246840E-01   8   8   6   2
  0.1007292343251935E+00   8   8   6   3
  0.2728617663377264E-01   8   8   6   4
 -0.1421164555465987E-01   8   8   6   5
  0.6897745062215223E+00   8   8   6   6
  0.7794335062915545E-16   8   8   7   1
 -0.3229384510346850E-16   8   8   7   2
 -0.1302078887184826E-16   8   8   7   3
  0.5194698393759020E-16   8   8   7   4
  0.6364896427911614E-16   8   8   7   5
 -0.4434850043944484E-16   8   8   7   6
  0.8469395685010539E+00   8   8   7   7
  0.5041916239592678E-01   8   8   8   1
 -0.7839105651235356E-02   8   8   8   2
  0.2150090880952346E-02   8   8   8   3
  0.9853268356985273E-01   8   8   8   4
 -0.2633772246533852E-01   8   8   8   5
 -0.4731533260302867E-01   8   8   8   6
  0.1849983293394007E-17   8   8   8   7
  0.9249904584429520E+00   8   8   8   8
  0.8463431950627860E+00   9   9   1   1
 -0.4484521366506834E-01   9   9   2   1
  0.7473891275659079E+00   9   9   2   2
 -0.9463066561068190E-01   9   9   3   1
 -0.9395451148968914E-01   9   9   3   2
  0.3723312350422680E+00   9   9   3   3
 -0.6854411648450079E-01   9   9   4   1
 -0.1061389759748497E+00   9   9   4   2
  0.1093011352692771E+00   9   9   4   3
  0.5309884073490396E+00   9   9   4   4
  0.3781163941389290E-01   9   9   5   1
 -0.1816889856964850E+00   9   9   5   2
  0.5252775966573861E-01   9   9   5   3
  0.8358896726612297E-01   9   9   5   4
  0.6701991897799364E+00   9   9   5   5
 -0.1524087717537403E+00   9   9   6   1
  0.1383943338936067E-01   9   9   6   2
  0.1090662399130224E+00   9   9   6   3
  0.3034845043022538E-01   9   9   6   4
 -0.1378303804252229E-01   9   9   6   5
  0.7024959989074445E+00   9   9   6   6
  0.5842264568593457E-01   9   9   7   1
 -0.1484527610193893E-01   9   9   7   2
 -0.1058266074087387E-01   9   9   7   3
 -0.1522505737033699E-01   9   9   7   4
  0.9726804447636888E-02   9   9   7   5
 -0.4157893210497809E-02   9   9   7   6
  0.8824996731908509E+00   9   9   7   7
 -0.3355986946874959E-01   9   9   8   1
  0.2549630804779339E-01   9   9   8   2
  0.1728011746005172E-01   9   9   8   3
  0.8962994025096938E-01   9   9   8   4
 -0.2989173795469805E-01   9   9   8   5
 -0.1415958004488399E-01   9   9   8   6
 -0.4029153276653004E-01   9   9   8   7
  0.8142827143555683E+00   9   9   8   8
  0.8962997638341365E+00   9   9   9   9
 -0.2272292274645018E+00  10   9   1   1
  0.2393475873623159E-01  10   9   2   1
 -0.1839567377674057E+00  10   9   2   2
  0.5145197171782519E-01  10   9   3   1
  0.4459435416523486E-01  10   9   3   2
 -0.3592072174486494E-01  10   9   3   3
  0.3536266276973373E-01  10   9   4   1
  0.6216517045140630E-01  10   9   4   2
 -0.4386057715289005E-01  10   9   4   3
 -0.8216470314842286E-01  10   9   4   4
 -0.2366403709357975E-01  10   9   5   1
  0.1211948501235011E+00  10   9   5   2
 -0.3281970995711474E-01  10   9   5   3
 -0.5605123568545042E-01  10   9   5   4
 -0.1560499874462440E+00  10   9   5   5
  0.1203993530724106E+00  10   9   6   1
 -0.5864438983786482E-02  10   9   6   2
 -0.4179058397828866E-01  10   9   6   3
 -0.3453986577866075E-01  10   9   6   4
  0.5988002540795567E-02  10   9   6   5
 -0.1515951313074950E+00  10   9   6   6
 -0.1741118522330375E-01  10   9   7   1
  0.4658259715121808E-02  10   9   7   2
  0.4774731973608561E-02  10   9   7   3
  0.3894437021360541E-02  10   9   7   4
 -0.5527646721998426E-02  10   9   7   5