 &FCI NORB=  3,NELEC=  4,MS2= 0,
  ORBSYM=1,1,1,
  ISYM=1,
 /
  0.8570353848120096E+00   1   1   1   1
 -0.1483036651902445E-01   2   1   1   1
  0.1579318939452778E+00   2   1   2   1
  0.7585940069351107E+00   2   2   1   1
 -0.5282030970262516E-01   2   2   2   1
  0.7769811050932667E+00   2   2   2   2
 -0.1323019727420285E+00   3   1   1   1
 -0.4261622643547792E-01   3   1   2   1
 -0.4060718650399017E-01   3   1   2   2
  0.9802078944986245E-01   3   1   3   1
 -0.1587425584915305E+00   3   2   1   1
  0.9407164348249836E-01   3   2   2   1
 -0.1267211310488466E+00   3   2   2   2
  0.5825759543097327E-01   3   2   3   1
  0.1709911132556408E+00   3   2   3   2
  0.6861303391804405E+00   3   3   1   1
  0.7295744030463912E-01   3   3   2   1
  0.6695676137104924E+00   3   3   2   2
 -0.6776450884964230E-01   3   3   3   1
 -0.1342008952446541E-01   3   3   3   2
  0.7158197435747127E+00   3   3   3   3
 -0.3687642142328220E+01   1   1   0   0
  0.6765067622165133E-01   2   1   0   0
 -0.2721548841179668E+01   2   2   0   0
  0.3075879904857808E+00   3   1   0   0
  0.4015900190548878E+00   3   2   0   0
 -0.1812868668510783E+01   3   3   0   0
 -0.9010487447391111E+02   0   0   0   0
