 &FCI NORB=  5,NELEC=  8,MS2= 0,
  ORBSYM=1,1,1,1,1,
  ISYM=1,
 /
  0.8570353853309767E+00   1   1   1   1
 -0.1483036682425541E-01   2   1   1   1
  0.1579318936302188E+00   2   1   2   1
  0.7585940062791162E+00   2   2   1   1
 -0.5282030896319106E-01   2   2   2   1
  0.7769811036441289E+00   2   2   2   2
 -0.7428766192364211E-16   3   1   1   1
 -0.3431516561235119E-16   3   1   2   1
  0.1324223358317804E-17   3   1   2   2
  0.1798088777775678E+00   3   1   3   1
 -0.1502562772931274E-15   3   2   1   1
  0.8784844634906557E-16   3   2   2   1
 -0.1135904944180568E-15   3   2   2   2
 -0.4401201931063099E-01   3   2   3   1
  0.4951705398027847E-01   3   2   3   2
  0.8768695901097842E+00   3   3   1   1
 -0.7723712336015362E-01   3   3   2   1
  0.7617006237513011E+00   3   3   2   2
 -0.2074742355579007E-15   3   3   3   1
 -0.1910583668131751E-15   3   3   3   2
  0.9975136259296613E+00   3   3   3   3
 -0.1223899585753235E-16   4   1   1   1
 -0.5814313135954955E-17   4   1   2   1
  0.6615382079606422E-18   4   1   2   2
 -0.3756185741438886E-16   4   1   3   1
  0.1433093530939883E-16   4   1   3   2
 -0.1906514492938128E-16   4   1   3   3
  0.1798088777775678E+00   4   1   4   1
 -0.2568578139740638E-16   4   2   1   1
  0.1513844207273661E-16   4   2   2   1
 -0.1928056997674439E-16   4   2   2   2
  0.9677563217018850E-17   4   2   3   1
 -0.1356942415942784E-16   4   2   3   2
 -0.2941660856226481E-16   4   2   3   3
 -0.4401201931063094E-01   4   2   4   1
  0.4951705398027843E-01   4   2   4   2
 -0.2165412533095262E-15   4   3   1   1
  0.1427666504599898E-16   4   3   2   1
 -0.1990895728322512E-15   4   3   2   2
 -0.8380910302672175E-17   4   3   3   1
 -0.1555759178778996E-17   4   3   3   2
 -0.2740863092043355E-15   4   3   3   3
 -0.4807434634640530E-16   4   3   4   1
 -0.9320750200068660E-17   4   3   4   2
  0.5377037009823859E-01   4   3   4   3
  0.8768695901097835E+00   4   4   1   1
 -0.7723712336015356E-01   4   4   2   1
  0.7617006237513004E+00   4   4   2   2
 -0.1113255428650899E-15   4   4   3   1
 -0.1724168664130377E-15   4   4   3   2
  0.8899728857331833E+00   4   4   3   3
 -0.3582696553472570E-16   4   4   4   1
 -0.3252812691982298E-16   4   4   4   2
 -0.2359223927328458E-15   4   4   4   3
  0.9975136259296598E+00   4   4   4   4
 -0.1323019725164985E+00   5   1   1   1
 -0.4261622688113541E-01   5   1   2   1
 -0.4060718596439543E-01   5   1   2   2
 -0.6609336375191933E-16   5   1   3   1
  0.1051901286808073E-15   5   1   3   2
 -0.1310085917087039E+00   5   1   3   3
 -0.1131678055970181E-16   5   1   4   1
  0.1823024162470653E-16   5   1   4   2
  0.3469446951953614E-16   5   1   4   3
 -0.1310085917087037E+00   5   1   4   4
  0.9802078944062004E-01   5   1   5   1
 -0.1587425590675011E+00   5   2   1   1
  0.9407164386683606E-01   5   2   2   1
 -0.1267211303798989E+00   5   2   2   2
  0.1336879405008512E-15   5   2   3   1
  0.1073594804753625E-15   5   2   3   2
 -0.1913535006800273E+00   5   2   3   3
  0.2347969578585618E-16   5   2   4   1
  0.1841236274907940E-16   5   2   4   2
  0.4857225732735062E-16   5   2   4   3
 -0.1913535006800272E+00   5   2   4   4
  0.5825759490216322E-01   5   2   5   1
  0.1709911140885152E+00   5   2   5   2
 -0.1900872603939325E-15   5   3   1   1
  0.1573155017920828E-15   5   3   2   1
 -0.1056074756056774E-15   5   3   2   2
 -0.4349842165125618E-01   5   3   3   1
 -0.1362918794445062E-01   5   3   3   2
 -0.2707136851014412E-15   5   3   3   3
  0.8251156105569987E-17   5   3   4   1
  0.4530751877778061E-17   5   3   4   2
 -0.3282034663723808E-17   5   3   4   3
 -0.2325414468436345E-15   5   3   4   4
  0.8787200967116419E-16   5   3   5   1
  0.1786640247829511E-15   5   3   5   2
  0.3178562732707138E-01   5   3   5   3
 -0.3297149633068803E-16   5   4   1   1
  0.2734374797774126E-16   5   4   2   1
 -0.1846320042245881E-16   5   4   2   2
  0.8094981619550429E-17   5   4   3   1
  0.1577919876378541E-17   5   4   3   2
 -0.4029528956525014E-16   5   4   3   3
 -0.4349842165125616E-01   5   4   4   1
 -0.1362918794445061E-01   5   4   4   2
 -0.1908611912890327E-16   5   4   4   3
 -0.4685935889269787E-16   5   4   4   4
  0.1505568987920914E-16   5   4   5   1
  0.3087324763244318E-16   5   4   5   2
 -0.4766095885018194E-17   5   4   5   3
  0.3178562732707137E-01   5   4   5   4
  0.6861303397377733E+00   5   5   1   1
  0.7295743962584597E-01   5   5   2   1
  0.6695676143267881E+00   5   5   2   2
  0.5362997999635191E-16   5   5   3   1
  0.1640354770331367E-16   5   5   3   2
  0.6531916349846455E+00   5   5   3   3
  0.9683251362743635E-17   5   5   4   1
  0.3093174618526812E-17   5   5   4   2
 -0.1942890293094023E-15   5   5   4   3
  0.6531916349846449E+00   5   5   4   4
 -0.6776450915169019E-01   5   5   5   1
 -0.1342009016317641E-01   5   5   5   2
 -0.8594549888020802E-17   5   5   5   3
 -0.1567932258115250E-17   5   5   5   4
  0.7158197434540126E+00   5   5   5   5
 -0.6835502747874969E+01   1   1   0   0
  0.2885751306067994E+00   2   1   0   0
 -0.5669317226134441E+01   2   2   0   0
  0.5415999703087800E-15   3   1   0   0
  0.9077721675412043E-15   3   2   0   0
 -0.6235682395906609E+01   3   3   0   0
  0.9157012469489799E-16   4   1   0   0
  0.1530266333608523E-15   4   2   0   0
  0.1554312234475219E-14   4   3   0   0
 -0.6235682395906603E+01   4   4   0   0
  0.7446255118446508E+00   5   1   0   0
  0.1139745648464392E+01   5   2   0   0
  0.1613419654606101E-14   5   3   0   0
  0.2772639228750035E-15   5   4   0   0
 -0.4362063955252499E+01   5   5   0   0
 -0.7060952294494015E+02   0   0   0   0
