 &FCI NORB= 5,NELEC= 2,MS2= 0,
  ORBSYM=1,1,2,3,5,
  ISYM=1
 &END
    1.02686462536      1  1  1  1
  -0.316446835443      2  1  1  1
   0.227505158434      2  1  2  1
   0.857592429628      2  2  1  1
  -0.255195296045      2  2  2  1
   765494726760.0      2  2  2  2
   0.961261985914      3  3  1  1
  -0.230484767886      3  3  2  1
   0.774953251641      3  3  2  2
    1.04053089912      3  3  3  3
   0.961261985914      4  4  1  1
  -0.230484767886      4  4  2  1
   0.774953251641      4  4  2  2
   0.913118952292      4  4  3  3
    1.04053089912      4  4  4  4
   0.961261985914      5  5  1  1
  -0.230484767886      5  5  2  1
   0.774953251641      5  5  2  2
   0.913118952292      5  5  3  3
   0.913118952292      5  5  4  4
    1.04053089912      5  5  5  5
   0.183149236385      3  1  3  1
  -0.253857555061E-01  3  2  3  1
   0.285286616078E-01  3  2  3  2
   0.183149236385      4  1  4  1
  -0.253857555061E-01  4  2  4  1
   0.285286616078E-01  4  2  4  2
   0.637059734157E-01  4  3  4  3
   0.183149236385      5  1  5  1
  -0.253857555061E-01  5  2  5  1
   0.285286616078E-01  5  2  5  2
   0.637059734157E-01  5  3  5  3
   0.637059734157E-01  5  4  5  4
   -1.94101255130      1  1  0  0
   0.316446835459      2  1  0  0
  902379965967.0  2  2  0  0
   0.784997290435      3  3  0  0
   0.784997290435      4  4  0  0
   0.784997290435      5  5  0  0
    0.00000000000      0  0  0  0
