 &FCI NORB=  3,NELEC=  2,MS2= 0,
  ORBSYM=1,1,1,
  ISYM=1,
  METHOD=IPT,
  MAXIT=  100,
  NSTATE=    1,
  MAXORDER=  6,
  EXPLICIT1=    0,
  PARALLEL_STRINGSET=    0,
  DENSITY=    2,
  SCS_OPPOSITE= 1.0000000000000    ,
  SCS_SAME= 1.0000000000000    ,
  JUNK=1,
 /
  0.1026864625361507E+01   1   1   1   1
 -0.8469027351482243E-20   2   1   1   1
  0.6985566608367182E-40   2   1   2   1
  0.5000000000071482E-06   2   2   1   1
  0.9266815264429467E-24   2   2   2   1
  0.1128378399999999E-03   2   2   2   2
 -0.3164468354447079E+00   3   1   1   1
  0.2609212653677342E-20   3   1   2   1
 -0.4900341542676661E-10   3   1   2   2
  0.2275051584332956E+00   3   1   3   1
  0.2605955331976101E-20   3   2   1   1
 -0.2148698072943142E-40   3   2   2   1
  0.5811495070248470E-27   3   2   2   2
 -0.1875384320384278E-20   3   2   3   1
  0.1545929458423247E-40   3   2   3   2
  0.8575924296278118E+00   3   3   1   1
 -0.7073007584159456E-20   3   3   2   1
  0.5001901163043241E-06   3   3   2   2
 -0.2551952960425878E+00   3   3   3   1
  0.2101163851038413E-20   3   3   3   2
  0.7654947267548984E+00   3   3   3   3
 -0.1941012551302123E+01   1   1   0   0
  0.1600988398298978E-19   2   1   0   0
 -0.9849999999999993E-06   2   2   0   0
  0.3164468354502703E+00   3   1   0   0
 -0.2609922281101903E-20   3   2   0   0
 -0.9023799659369924E-01   3   3   0   0
  0.0000000000000000E+00   0   0   0   0
