 &FCI NORB=  2,NELEC=  2,MS2= 0,
  ORBSYM=1,1,
  ISYM=1,
 /
  0.1026864624835199E+01   1   1   1   1
 -0.3164468353258985E+00   2   1   1   1
  0.2275051584842300E+00   2   1   2   1
  0.8575924296787472E+00   2   2   1   1
 -0.2551952962700695E+00   2   2   2   1
  0.7654947271793255E+00   2   2   2   2
 -0.1941012551038969E+01   1   1   0   0
  0.3164468362198138E+00   2   1   0   0
 -0.9023799685685407E-01   2   2   0   0
  0.0000000000000000E+00   0   0   0   0
