 &FCI NORB=  4,NELEC=  0,MS2= 0,
  ORBSYM=1,1,1,1,
  ISYM=1,
  METHOD=DAVIDSON,
  MAXIT=  100,
  NSTATE=    1,
  MAXORDER=  100,
  EXPLICIT1=    0,
  PARALLEL_STRINGSET=    0,
  DENSITY=    2,
  SCS_OPPOSITE= 1.0000000000000    ,
  SCS_SAME= 1.0000000000000    ,
  JUNK=1,
 /
   0.350440845476       1   1   1   1
   0.766432963006E-01   2   1   2   1
   0.355813490757       2   2   1   1
   0.390137115766       2   2   2   2
   0.766432963006E-01   3   1   3   1
   0.207195099693E-01   3   2   3   2
   0.355813490757       3   3   1   1
   0.348698095848       3   3   2   2
   0.390137115766       3   3   3   3
   0.766432963006E-01   4   1   4   1
   0.207195099693E-01   4   2   4   2
   0.207195099693E-01   4   3   4   3
   0.355813490757       4   4   1   1
   0.348698095848       4   4   2   2
   0.348698095848       4   4   3   3
   0.390137115766       4   4   4   4
  -0.656356944830       1   1   0   0
  -0.516573902323       2   2   0   0
  -0.516573902323       3   3   0   0
  -0.516573902323       4   4   0   0
   -13.6095232102       0   0   0   0
