 &FCI NORB=  1,NELEC=  2,MS2= 0,
  ORBSYM=1,
  ISYM=1,
  DENSITY=2,
  IUHF=0,
  JUNK=0,
 /
  0.1025903727942443E+01   1   1   1   1
 -0.1943528536362463E+01   1   1   0   0
  0.0000000000000000E+00   0   0   0   0
