 &FCI NORB=  5,NELEC=  2,MS2= 0,
  ORBSYM=1,1,1,1,1,
  DENSITY=2, ISYM=1,
 /
  0.1026864624835199E+01   1   1   1   1
 -0.3164468353258988E+00   2   1   1   1
  0.2275051584842301E+00   2   1   2   1
  0.8575924296787456E+00   2   2   1   1
 -0.2551952962700668E+00   2   2   2   1
  0.7654947271793197E+00   2   2   2   2
  0.0000000000000000E+00   3   1   1   1
  0.0000000000000000E+00   3   1   2   1
  0.0000000000000000E+00   3   1   2   2
  0.1831492363642471E+00   3   1   3   1
  0.0000000000000000E+00   3   2   1   1
  0.0000000000000000E+00   3   2   2   1
  0.0000000000000000E+00   3   2   2   2
 -0.2538575556968755E-01   3   2   3   1
  0.2852866162864775E-01   3   2   3   2
  0.9612619857247412E+00   3   3   1   1
 -0.2304847679629771E+00   3   3   2   1
  0.7749532518307798E+00   3   3   2   2
  0.0000000000000000E+00   3   3   3   1
  0.0000000000000000E+00   3   3   3   2
  0.1040530899123288E+01   3   3   3   3
  0.0000000000000000E+00   4   1   1   1
  0.0000000000000000E+00   4   1   2   1
  0.0000000000000000E+00   4   1   2   2
  0.0000000000000000E+00   4   1   3   1
  0.0000000000000000E+00   4   1   3   2
  0.0000000000000000E+00   4   1   3   3
  0.1831492363642471E+00   4   1   4   1
  0.0000000000000000E+00   4   2   1   1
  0.0000000000000000E+00   4   2   2   1
  0.0000000000000000E+00   4   2   2   2
  0.0000000000000000E+00   4   2   3   1
  0.0000000000000000E+00   4   2   3   2
  0.0000000000000000E+00   4   2   3   3
 -0.2538575556968755E-01   4   2   4   1
  0.2852866162864775E-01   4   2   4   2
  0.0000000000000000E+00   4   3   1   1
  0.0000000000000000E+00   4   3   2   1
  0.0000000000000000E+00   4   3   2   2
  0.0000000000000000E+00   4   3   3   1
  0.0000000000000000E+00   4   3   3   2
  0.0000000000000000E+00   4   3   3   3
  0.0000000000000000E+00   4   3   4   1
  0.0000000000000000E+00   4   3   4   2
  0.6370597341571141E-01   4   3   4   3
  0.9612619857247412E+00   4   4   1   1
 -0.2304847679629771E+00   4   4   2   1
  0.7749532518307798E+00   4   4   2   2
  0.0000000000000000E+00   4   4   3   1
  0.0000000000000000E+00   4   4   3   2
  0.9131189522918648E+00   4   4   3   3
  0.0000000000000000E+00   4   4   4   1
  0.0000000000000000E+00   4   4   4   2
  0.0000000000000000E+00   4   4   4   3
  0.1040530899123288E+01   4   4   4   4
  0.0000000000000000E+00   5   1   1   1
  0.0000000000000000E+00   5   1   2   1
  0.0000000000000000E+00   5   1   2   2
  0.0000000000000000E+00   5   1   3   1
  0.0000000000000000E+00   5   1   3   2
  0.0000000000000000E+00   5   1   3   3
  0.0000000000000000E+00   5   1   4   1
  0.0000000000000000E+00   5   1   4   2
  0.0000000000000000E+00   5   1   4   3
  0.0000000000000000E+00   5   1   4   4
  0.1831492363642471E+00   5   1   5   1
  0.0000000000000000E+00   5   2   1   1
  0.0000000000000000E+00   5   2   2   1
  0.0000000000000000E+00   5   2   2   2
  0.0000000000000000E+00   5   2   3   1
  0.0000000000000000E+00   5   2   3   2
  0.0000000000000000E+00   5   2   3   3
  0.0000000000000000E+00   5   2   4   1
  0.0000000000000000E+00   5   2   4   2
  0.0000000000000000E+00   5   2   4   3
  0.0000000000000000E+00   5   2   4   4
 -0.2538575556968755E-01   5   2   5   1
  0.2852866162864775E-01   5   2   5   2
  0.0000000000000000E+00   5   3   1   1
  0.0000000000000000E+00   5   3   2   1
  0.0000000000000000E+00   5   3   2   2
  0.0000000000000000E+00   5   3   3   1
  0.0000000000000000E+00   5   3   3   2
  0.0000000000000000E+00   5   3   3   3
  0.0000000000000000E+00   5   3   4   1
  0.0000000000000000E+00   5   3   4   2
  0.0000000000000000E+00   5   3   4   3
  0.0000000000000000E+00   5   3   4   4
  0.0000000000000000E+00   5   3   5   1
  0.0000000000000000E+00   5   3   5   2
  0.6370597341571141E-01   5   3   5   3
  0.0000000000000000E+00   5   4   1   1
  0.0000000000000000E+00   5   4   2   1
  0.0000000000000000E+00   5   4   2   2
  0.0000000000000000E+00   5   4   3   1
  0.0000000000000000E+00   5   4   3   2
  0.0000000000000000E+00   5   4   3   3
  0.0000000000000000E+00   5   4   4   1
  0.0000000000000000E+00   5   4   4   2
  0.0000000000000000E+00   5   4   4   3
  0.0000000000000000E+00   5   4   4   4
  0.0000000000000000E+00   5   4   5   1
  0.0000000000000000E+00   5   4   5   2
  0.0000000000000000E+00   5   4   5   3
  0.6370597341571141E-01   5   4   5   4
  0.9612619857247413E+00   5   5   1   1
 -0.2304847679629776E+00   5   5   2   1
  0.7749532518307812E+00   5   5   2   2
  0.0000000000000000E+00   5   5   3   1
  0.0000000000000000E+00   5   5   3   2
  0.9131189522918648E+00   5   5   3   3
  0.0000000000000000E+00   5   5   4   1
  0.0000000000000000E+00   5   5   4   2
  0.0000000000000000E+00   5   5   4   3
  0.9131189522918648E+00   5   5   4   4
  0.0000000000000000E+00   5   5   5   1
  0.0000000000000000E+00   5   5   5   2
  0.0000000000000000E+00   5   5   5   3
  0.0000000000000000E+00   5   5   5   4
  0.1040530899123288E+01   5   5   5   5
 -0.1941012551038968E+01   1   1   0   0
  0.3164468362198127E+00   2   1   0   0
 -0.9023799685685335E-01   2   2   0   0
  0.0000000000000000E+00   3   1   0   0
  0.0000000000000000E+00   3   2   0   0
  0.7849972904352338E+00   3   3   0   0
  0.0000000000000000E+00   4   1   0   0
  0.0000000000000000E+00   4   2   0   0
  0.0000000000000000E+00   4   3   0   0
  0.7849972904352338E+00   4   4   0   0
  0.0000000000000000E+00   5   1   0   0
  0.0000000000000000E+00   5   2   0   0
  0.0000000000000000E+00   5   3   0   0
  0.0000000000000000E+00   5   4   0   0
  0.7849972904352338E+00   5   5   0   0
  0.0000000000000000E+00   0   0   0   0
