 &FCI NORB=  5,NELEC=  2,MS2= 0,
  ORBSYM=1,1,2,3,5,
  ISYM=1,
 /
  0.1026864624835199E+01   1   1   1   1
 -0.3164468353258985E+00   2   1   1   1
  0.2275051584842300E+00   2   1   2   1
  0.8575924296787472E+00   2   2   1   1
 -0.2551952962700695E+00   2   2   2   1
  0.7654947271793255E+00   2   2   2   2
  0.9612619857247412E+00   3   3   1   1
 -0.2304847679629772E+00   3   3   2   1
  0.7749532518307802E+00   3   3   2   2
  0.1040530899123288E+01   3   3   3   3
  0.9612619857247412E+00   4   4   1   1
 -0.2304847679629772E+00   4   4   2   1
  0.7749532518307802E+00   4   4   2   2
  0.9131189522918646E+00   4   4   3   3
  0.1040530899123288E+01   4   4   4   4
  0.9612619857247412E+00   5   5   1   1
 -0.2304847679629772E+00   5   5   2   1
  0.7749532518307802E+00   5   5   2   2
  0.9131189522918646E+00   5   5   3   3
  0.9131189522918646E+00   5   5   4   4
  0.1040530899123288E+01   5   5   5   5
  0.1831492363642471E+00   3   1   3   1
 -0.2538575556968762E-01   3   2   3   1
  0.2852866162864773E-01   3   2   3   2
  0.1831492363642471E+00   4   1   4   1
 -0.2538575556968762E-01   4   2   4   1
  0.2852866162864773E-01   4   2   4   2
  0.6370597341571141E-01   4   3   4   3
  0.1831492363642471E+00   5   1   5   1
 -0.2538575556968762E-01   5   2   5   1
  0.2852866162864773E-01   5   2   5   2
  0.6370597341571141E-01   5   3   5   3
  0.6370597341571141E-01   5   4   5   4
 -0.1941012551038969E+01   1   1   0   0
  0.3164468362198138E+00   2   1   0   0
 -0.9023799685685407E-01   2   2   0   0
  0.7849972904352338E+00   3   3   0   0
  0.7849972904352338E+00   4   4   0   0
  0.7849972904352338E+00   5   5   0   0
  0.0000000000000000E+00   0   0   0   0
