 &FCI NORB=  3,NELEC=  4,MS2= 0,
  ORBSYM=1,1,1,
  ISYM=1,
 /
  0.2273135923272362E+01   1   1   1   1
 -0.1901880450049379E+00   2   1   1   1
  0.2530580304175647E-01   2   1   2   1
  0.4808987001551447E+00   2   2   1   1
 -0.5659812984466482E-02   2   2   2   1
  0.3434890333810697E+00   2   2   2   2
  0.1576659156673076E+00   3   1   1   1
 -0.2050397600341842E-01   3   1   2   1
  0.4621777199916795E-02   3   1   2   2
  0.1687270454042222E-01   3   1   3   1
 -0.1824665014952317E+00   3   2   1   1
  0.4614989436247138E-02   3   2   2   1
 -0.7424454971059187E-01   3   2   2   2
 -0.3735319913786402E-02   3   2   3   1
  0.4460885311349053E-01   3   2   3   2
  0.3772589821605304E+00   3   3   1   1
 -0.3935777375064133E-02   3   3   2   1
  0.2770500790070385E+00   3   3   2   2
  0.3252274254092469E-02   3   3   3   1
 -0.4626662922078423E-01   3   3   3   2
  0.2388689544500409E+00   3   3   3   3
 -0.7941953686512891E+01   1   1   0   0
  0.1958478579894044E+00   2   1   0   0
 -0.1589019204541091E+01   2   2   0   0
 -0.1622944718480834E+00   3   1   0   0
  0.4186735960278520E+00   3   2   0   0
 -0.9483138925783372E+00   3   3   0   0
  0.0000000000000000E+00   0   0   0   0
