 &FCI NORB=  4,NELEC=  2,MS2= 0,
  ORBSYM=1,1,5,5,
  ISYM=1,
 /
  0.6523831896925695E+00   1   1   1   1
 -0.1529359253052337E+00   2   1   1   1
  0.8189575798369933E-01   2   1   2   1
  0.4494062775004845E+00   2   2   1   1
 -0.7283866007651668E-01   2   2   2   1
  0.3576298636529972E+00   2   2   2   2
  0.3881988861868774E+00   3   3   1   1
 -0.3467506533755244E-01   3   3   2   1
  0.3210142734617214E+00   3   3   2   2
  0.3369009324071734E+00   3   3   3   3
  0.1413565155561930E+00   4   3   1   1
 -0.5565942404750215E-01   4   3   2   1
  0.6886194595759375E-01   4   3   2   2
  0.4775308279610130E-01   4   3   3   3
  0.5843864217829639E-01   4   3   4   3
  0.6242936224076718E+00   4   4   1   1
 -0.1570801486639142E+00   4   4   2   1
  0.4353959002961761E+00   4   4   2   2
  0.3845291193805388E+00   4   4   3   3
  0.1453943567794565E+00   4   4   4   3
  0.6449070905125766E+00   4   4   4   4
  0.6012574881089824E-01   3   1   3   1
  0.2360763018090578E-01   3   2   3   1
  0.3800761248376330E-01   3   2   3   2
  0.7403691929723397E-01   4   1   3   1
 -0.4591488751956514E-02   4   1   3   2
  0.1379528451894625E+00   4   1   4   1
 -0.5476449268890146E-01   4   2   3   1
 -0.1085363947228579E-01   4   2   3   2
 -0.9132975758260288E-01   4   2   4   1
  0.7245602280332038E-01   4   2   4   2
 -0.1245620983509061E+01   1   1   0   0
  0.1529365188968042E+00   2   1   0   0
 -0.3384131838127850E+00   2   2   0   0
 -0.5193500577922374E+00   3   3   0   0
 -0.2086761118151517E+00   4   3   0   0
 -0.7435932846179402E-01   4   4   0   0
  0.7142857142857143E+00   0   0   0   0
