 &FCI NORB=  6,NELEC=  2,MS2= 0,
  ORBSYM=1,1,1,1,2,3,
  ISYM=1,
 /
  0.1026864625361507E+01   1   1   1   1
  0.2577786890473253E-19   2   1   1   1
  0.6471365353172133E-39   2   1   2   1
  0.1000000000007930E-05   2   2   1   1
 -0.8706495569916335E-24   2   2   2   1
  0.3568240000000000E-04   2   2   2   2
 -0.3164468354447079E+00   3   1   1   1
 -0.7943922480470425E-20   3   1   2   1
 -0.5435853558023948E-10   3   1   2   2
  0.2275051584332961E+00   3   1   3   1
 -0.7943922481253123E-20   3   2   1   1
 -0.1994202416126457E-39   3   2   2   1
 -0.1364622257512235E-29   3   2   2   2
  0.5711175276077898E-20   3   2   3   1
  0.1433704767782091E-39   3   2   3   2
  0.8575924296278121E+00   3   3   1   1
  0.2152854468241334E-19   3   3   2   1
  0.1000210892318482E-05   3   3   2   2
 -0.2551952960425897E+00   3   3   3   1
 -0.6406294588069588E-20   3   3   3   2
  0.7654947267549033E+00   3   3   3   3
  0.3350174094967081E-10   4   1   1   1
  0.8357078228925795E-30   4   1   2   1
  0.1130158425533450E-20   4   1   2   2
  0.4501434913781633E-11   4   1   3   1
  0.1137368032967677E-30   4   1   3   2
 -0.3148939477271164E-11   4   1   3   3
  0.1831492364089987E+00   4   1   4   1
  0.8131776953359454E-30   4   2   1   1
  0.2028045783794941E-49   4   2   2   1
  0.8507125764271573E-36   4   2   2   2
  0.1196754181926390E-30   4   2   3   1
  0.3022723719595390E-50   4   2   3   2
 -0.1014880404158198E-30   4   2   3   3
  0.4597686479078844E-20   4   2   4   1
  0.1154180130606638E-39   4   2   4   2
  0.2594221663887026E-10   4   3   1   1
  0.6519754231674210E-30   4   3   2   1
  0.2603341974983754E-21   4   3   2   2
 -0.1782921917622272E-10   4   3   3   1
 -0.4484018105011014E-30   4   3   3   2
  0.2423147390276148E-10   4   3   3   3
 -0.2538575550867394E-01   4   3   4   1
 -0.6372712611182184E-21   4   3   4   2
  0.2852866161121972E-01   4   3   4   3
  0.9612619860404907E+00   4   4   1   1
  0.2413101318368786E-19   4   4   2   1
  0.1000000000129081E-05   4   4   2   2
 -0.2304847679152623E+00   4   4   3   1
 -0.5785973896093671E-20   4   4   3   2
  0.7749532517391433E+00   4   4   3   3
 -0.1985152209722493E-10   4   4   4   1
 -0.5284710546613570E-30   4   4   4   2
  0.2951714248674433E-10   4   4   4   3
  0.1040530899391914E+01   4   4   4   4
  0.9612619859164101E+00   5   5   1   1
  0.2413101318157715E-19   5   5   2   1
  0.9999599999999999E-06   5   5   2   2
 -0.2304847678855113E+00   5   5   3   1
 -0.5785973895346826E-20   5   5   3   2
  0.7749532516391122E+00   5   5   3   3
  0.4814641577645714E-12   5   5   4   1
 -0.1435277992396371E-31   5   5   4   2
  0.2350865878948438E-10   5   5   4   3
  0.9131189524097310E+00   5   5   4   4
  0.1040530899123288E+01   5   5   5   5
  0.9612619859164101E+00   6   6   1   1
  0.2413101318157715E-19   6   6   2   1
  0.9999599999999999E-06   6   6   2   2
 -0.2304847678855113E+00   6   6   3   1
 -0.5785973895346826E-20   6   6   3   2
  0.7749532516391122E+00   6   6   3   3
  0.4814641577645714E-12   6   6   4   1
 -0.1435277992396371E-31   6   6   4   2
  0.2350865878948438E-10   6   6   4   3
  0.9131189524097310E+00   6   6   4   4
  0.9131189522918646E+00   6   6   5   5
  0.1040530899123288E+01   6   6   6   6
  0.1831492363853576E+00   5   1   5   1
  0.4597686478485368E-20   5   2   5   1
  0.1154180130457655E-39   5   2   5   2
 -0.2538575550539712E-01   5   3   5   1
 -0.6372712610359587E-21   5   3   5   2
  0.2852866160753721E-01   5   3   5   3
 -0.1016649312621354E-10   5   4   5   1
 -0.2570591373350822E-30   5   4   5   2
  0.3004241846724919E-11   5   4   5   3
  0.6370597342393466E-01   5   4   5   4
  0.1831492363853576E+00   6   1   6   1
  0.4597686478485368E-20   6   2   6   1
  0.1154180130457655E-39   6   2   6   2
 -0.2538575550539712E-01   6   3   6   1
 -0.6372712610359587E-21   6   3   6   2
  0.2852866160753721E-01   6   3   6   3
 -0.1016649312621354E-10   6   4   6   1
 -0.2570591373350822E-30   6   4   6   2
  0.3004241846724919E-11   6   4   6   3
  0.6370597342393466E-01   6   4   6   4
  0.6370597341571141E-01   6   5   6   5
 -0.1941012551302123E+01   1   1   0   0
 -0.4872615441557571E-19   2   1   0   0
 -0.1998500000000000E-05   2   2   0   0
  0.3164468354502707E+00   3   1   0   0
  0.7943922482101434E-20   3   2   0   0
 -0.9023799659370013E-01   3   3   0   0
 -0.3351334716796155E-10   4   1   0   0
 -0.8640317841697300E-30   4   2   0   0
 -0.4738395908348784E-10   4   3   0   0
  0.7849972904413716E+00   4   4   0   0
  0.7849972904352338E+00   5   5   0   0
  0.7849972904352338E+00   6   6   0   0
  0.0000000000000000E+00   0   0   0   0
