 &FCI NORB=  3,NELEC=  2,MS2= 0,
  ORBSYM=1,1,1,
  ISYM=1,
  METHOD=IPT,
  MAXIT=  20,
  NSTATE=    1,
  MAXORDER=  5,
  EXPLICIT1=    0,
  PARALLEL_STRINGSET=    0,
  DENSITY=    2,
  SCS_OPPOSITE= 1.0000000000000    ,
  SCS_SAME= 1.0000000000000    ,
  JUNK=1,
 /
  0.1026864625361507E+01   1   1   1   1
 -0.0E-20   2   1   1   1
  0.0E-40   2   1   2   1
  0.0E-06   2   2   1   1
  0.0E-24   2   2   2   1
  0.0E-03   2   2   2   2
 -0.3164468354447079E+00   3   1   1   1
  0.0E-20   3   1   2   1
 -0.0E-10   3   1   2   2
  0.2275051584332956E+00   3   1   3   1
  0.0E-20   3   2   1   1
 -0.0E-40   3   2   2   1
  0.0E-27   3   2   2   2
 -0.0E-20   3   2   3   1
  0.0E-40   3   2   3   2
  0.8575924296278118E+00   3   3   1   1
 -0.0E-20   3   3   2   1
  0.0E-06   3   3   2   2
 -0.2551952960425878E+00   3   3   3   1
  0.0E-20   3   3   3   2
  0.7654947267548984E+00   3   3   3   3
 -0.1941012551302123E+01   1   1   0   0
  0.0E-19   2   1   0   0
 -0.0E-06   2   2   0   0
  0.3164468354502703E+00   3   1   0   0
 -0.0E-20   3   2   0   0
 -0.9023799659369924E-01   3   3   0   0
  0.0000000000000000E+00   0   0   0   0
