 &FCI NORB=  2,NELEC=  2,MS2= 0,
  ORBSYM=1,1,
  DENSITY=2, ISYM=1,
  NSTATE=2,
  JUNK=1,
 /
  0.1024374799001578E+01   1   1   1   1
 -0.3158811239703511E+00   2   1   1   1
  0.2277431087125834E+00   2   1   2   1
  0.8578303799070999E+00   2   2   1   1
 -0.2562711531100803E+00   2   2   2   1
  0.7675086525562389E+00   2   2   2   2
 -0.1939759355925785E+01   1   1   0   0
  0.3200881304929064E+00   2   1   0   0
 -0.9149119197003898E-01   2   2   0   0
  0.0000000000000000E+00   0   0   0   0
