 &FCI NORB= 18,NELEC=  8,MS2= 0,
  ORBSYM=1,1,1,1,1,1,1,1,1,2,2,2,2,3,3,3,3,4,
  ISYM=1,
 /
  0.8814460418931641E+00   1   1   1   1
  0.9853692172118775E-02   2   1   1   1
  0.1663072673376940E+00   2   1   2   1
  0.7959460945163170E+00   2   2   1   1
 -0.3374406848525149E-01   2   2   2   1
  0.8019743327268983E+00   2   2   2   2
 -0.1066799342571430E+00   3   1   1   1
 -0.2843907196745781E-01   3   1   2   1
 -0.6789868294583221E-01   3   1   2   2
  0.3365989283907382E-01   3   1   3   1
 -0.9630469918876716E-01   3   2   1   1
  0.1788114393770496E-01   3   2   2   1
 -0.8320986855877192E-01   3   2   2   2
  0.2432301677011197E-01   3   2   3   1
  0.3828395017019182E-01   3   2   3   2
  0.3919672823975004E+00   3   3   1   1
  0.4712778823566235E-01   3   3   2   1
  0.3839828968858743E+00   3   3   2   2
 -0.1447954636982764E-01   3   3   3   1
  0.1154947326596051E-01   3   3   3   2
  0.3625544185256876E+00   3   3   3   3
  0.5802754423003776E-01   4   1   1   1
  0.2305391249882435E-01   4   1   2   1
  0.1958758001222487E-02   4   1   2   2
 -0.3064729024526913E-01   4   1   3   1
 -0.2190517771562847E-01   4   1   3   2
 -0.1286017077169490E-02   4   1   3   3
  0.4719388060715029E-01   4   1   4   1
  0.9877299797947804E-01   4   2   1   1
 -0.8113251966245499E-01   4   2   2   1
  0.8403828986577978E-01   4   2   2   2
 -0.2447874839286580E-01   4   2   3   1
 -0.5504128059869384E-01   4   2   3   2
 -0.2808338464151851E-01   4   2   3   3
  0.3799804276800542E-01   4   2   4   1
  0.1235027877891705E+00   4   2   4   2
 -0.1280987735978456E+00   4   3   1   1
 -0.2613650607762962E-01   4   3   2   1
 -0.1262040360456699E+00   4   3   2   2
  0.1740840458329605E-01   4   3   3   1
  0.6543495551570820E-02   4   3   3   2
 -0.5102793999280479E-01   4   3   3   3
  0.4246173434893532E-02   4   3   4   1
  0.1702331147340420E-01   4   3   4   2
  0.5439671036398415E-01   4   3   4   3
  0.5601401681284002E+00   4   4   1   1
  0.9584156859801810E-01   4   4   2   1
  0.5767274214534225E+00   4   4   2   2
 -0.2715968461956890E-01   4   4   3   1
  0.1341758443078939E-01   4   4   3   2
  0.4202676365201234E+00   4   4   3   3
 -0.4172556618156784E-01   4   4   4   1
 -0.1038410483784747E+00   4   4   4   2
 -0.1396449224148257E+00   4   4   4   3
  0.6950607159697745E+00   4   4   4   4
  0.2467763558353494E-01   5   1   1   1
 -0.4520428216267510E-01   5   1   2   1
  0.2165259214081161E-01   5   1   2   2
  0.4638382746102981E-02   5   1   3   1
  0.3396656695494441E-02   5   1   3   2
  0.2412892983981224E-02   5   1   3   3
 -0.3240526965232507E-02   5   1   4   1
  0.1942455187181599E-01   5   1   4   2
  0.3471161485926571E-02   5   1   4   3
 -0.6643438402437321E-02   5   1   4   4
  0.3754249704175339E-01   5   1   5   1
 -0.1737811495655242E+00   5   2   1   1
 -0.1434183465745849E-01   5   2   2   1
 -0.1590230259406986E+00   5   2   2   2
  0.3792070286290138E-01   5   2   3   1
  0.2731051153208019E-01   5   2   3   2
 -0.3848473953534328E-01   5   2   3   3
 -0.1297299377825857E-01   5   2   4   1
 -0.2904708946156203E-01   5   2   4   2
  0.3638160843103652E-01   5   2   4   3
 -0.9831106014656546E-01   5   2   4   4
 -0.2037191897938657E-01   5   2   5   1
  0.1065700064423897E+00   5   2   5   2
  0.4465325953428342E-01   5   3   1   1
  0.3220158485746363E-01   5   3   2   1
  0.3457477257177949E-01   5   3   2   2
 -0.1200211712195640E-01   5   3   3   1
  0.2498409278912206E-02   5   3   3   2
  0.3173727794277772E-01   5   3   3   3
  0.7192221258673383E-02   5   3   4   1
 -0.7085178017191080E-02   5   3   4   2
 -0.1520256597558732E-01   5   3   4   3
  0.4959826085967458E-01   5   3   4   4
  0.3640473874988328E-02   5   3   5   1
 -0.3192707090137289E-01   5   3   5   2
  0.2141145036687647E-01   5   3   5   3
 -0.3565016858443493E-01   5   4   1   1
  0.1454698894003377E-01   5   4   2   1
 -0.3110203427492085E-01   5   4   2   2
  0.1049037938180943E-01   5   4   3   1
  0.1109822593529822E-01   5   4   3   2
 -0.8580004708761203E-02   5   4   3   3
 -0.1270890928021577E-01   5   4   4   1
 -0.3250409469328854E-01   5   4   4   2
  0.6854451949886656E-02   5   4   4   3
  0.6913062369333422E-02   5   4   4   4
 -0.1208761365157991E-01   5   4   5   1
  0.2653433091580241E-01   5   4   5   2
 -0.9737849031548774E-02   5   4   5   3
  0.2505245943277177E-01   5   4   5   4
  0.6074037757360294E+00   5   5   1   1
 -0.6823340507450222E-01   5   5   2   1
  0.6200272028310299E+00   5   5   2   2
 -0.3645448393324577E-01   5   5   3   1
 -0.7292409466824372E-01   5   5   3   2
  0.3136194060726727E+00   5   5   3   3
  0.4130280259181220E-02   5   5   4   1
  0.8497205086909290E-01   5   5   4   2
 -0.7691753292246317E-01   5   5   4   3
  0.4184442484836116E+00   5   5   4   4
  0.1575008806196654E-02   5   5   5   1
 -0.5749063528182105E-01   5   5   5   2
 -0.8940814170309064E-02   5   5   5   3
 -0.1239445889640034E-01   5   5   5   4
  0.5930299214836189E+00   5   5   5   5
 -0.1592925577518297E+00   6   1   1   1
  0.7168151496798755E-02   6   1   2   1
 -0.1432954324123306E+00   6   1   2   2
  0.3956610288158968E-01   6   1   3   1
  0.3678650792111946E-01   6   1   3   2
 -0.2604448341399533E-01   6   1   3   3
 -0.2068329940719818E-01   6   1   4   1
 -0.5180070463578512E-01   6   1   4   2
  0.3378483508700345E-01   6   1   4   3
 -0.6079557494099840E-01   6   1   4   4
 -0.8615607743960370E-02   6   1   5   1
  0.8124029159436429E-01   6   1   5   2
 -0.1840413116554365E-01   6   1   5   3
  0.3022398718819338E-01   6   1   5   4
 -0.8130626682451465E-01   6   1   5   5
  0.9859714893958813E-01   6   1   6   1
  0.2366347517476220E-01   6   2   1   1
 -0.5408017092552167E-01   6   2   2   1
  0.4622349401509795E-01   6   2   2   2
  0.1023417289050808E-01   6   2   3   1
 -0.4290256040072604E-03   6   2   3   2
 -0.1369155487627002E-02   6   2   3   3
 -0.1724258830574990E-01   6   2   4   1
  0.2276833399624400E-01   6   2   4   2
  0.6437744621737469E-03   6   2   4   3
  0.1908196650506714E-02   6   2   4   4
  0.3483033091618866E-01   6   2   5   1
 -0.2182594503137096E-01   6   2   5   2
  0.1645512414075179E-04   6   2   5   3
 -0.1064912108843486E-01   6   2   5   4
  0.2494147918640687E-01   6   2   5   5
 -0.1330069555183321E-01   6   2   6   1
  0.4509272747393772E-01   6   2   6   2
  0.9811282338435172E-01   6   3   1   1
  0.1075064749572606E-01   6   3   2   1
  0.7561943836616845E-01   6   3   2   2
 -0.2189959516872251E-01   6   3   3   1
 -0.2257918420260063E-01   6   3   3   2
  0.8243126595046448E-02   6   3   3   3
  0.1936211233408691E-01   6   3   4   1
  0.2113909964985339E-01   6   3   4   2
 -0.1797454375603341E-01   6   3   4   3
  0.3152453244544096E-01   6   3   4   4
 -0.5224504391570219E-02   6   3   5   1
 -0.2145223522396230E-01   6   3   5   2
  0.5254925633351294E-02   6   3   5   3
 -0.4557463030944939E-02   6   3   5   4
  0.6022568105266466E-01   6   3   5   5
 -0.2462507810683316E-01   6   3   6   1
 -0.7079803642351931E-02   6   3   6   2
  0.2585938155986629E-01   6   3   6   3
  0.2313501493805200E-02   6   4   1   1
 -0.2798178706220414E-01   6   4   2   1
  0.2077400796662969E-01   6   4   2   2
  0.1225476657438125E-01   6   4   3   1
  0.2690661901682810E-02   6   4   3   2
 -0.4352749338121543E-02   6   4   3   3
 -0.1679730124528321E-01   6   4   4   1
 -0.1369290976428447E-02   6   4   4   2
  0.1034238653522847E-02   6   4   4   3
  0.1055910113506039E-01   6   4   4   4
  0.1295993010917304E-01   6   4   5   1
  0.5060805769273799E-03   6   4   5   2
 -0.5327718130937178E-02   6   4   5   3
  0.5731541562120430E-02   6   4   5   4
  0.1905926835996910E-01   6   4   5   5
  0.1345281106215427E-01   6   4   6   1
  0.1805174454983636E-01   6   4   6   2
 -0.3815986503234111E-02   6   4   6   3
  0.1791547246586492E-01   6   4   6   4
 -0.1776847883653858E-01   6   5   1   1
  0.8067332636924951E-01   6   5   2   1
 -0.4545830714572587E-01   6   5   2   2
 -0.1015157309724556E-01   6   5   3   1
  0.1406039846644055E-01   6   5   3   2
  0.1875991929581597E-01   6   5   3   3
  0.1496321308676360E-01   6   5   4   1
 -0.4088145968021702E-01   6   5   4   2
 -0.4035356288802364E-02   6   5   4   3
  0.2790859185568464E-01   6   5   4   4
 -0.1955444727052451E-01   6   5   5   1
  0.4101320289629493E-02   6   5   5   2
  0.1610308096646249E-01   6   5   5   3
  0.1040802765047028E-01   6   5   5   4
 -0.5709607166776268E-01   6   5   5   5
  0.1904366922531985E-01   6   5   6   1
 -0.2927403091998061E-01   6   5   6   2
  0.2901930007443723E-02   6   5   6   3
 -0.1251961724769973E-01   6   5   6   4
  0.4981999360125301E-01   6   5   6   5
  0.7030077718592671E+00   6   6   1   1
 -0.1335836428697989E-01   6   6   2   1
  0.6465060861901245E+00   6   6   2   2
 -0.6621083370943262E-01   6   6   3   1
 -0.6591534872449431E-01   6   6   3   2
  0.3588899244559257E+00   6   6   3   3
  0.4031347708273107E-01   6   6   4   1
  0.7752987169059181E-01   6   6   4   2
 -0.8656328792585355E-01   6   6   4   3
  0.4692026634716864E+00   6   6   4   4
  0.2889929919027487E-01   6   6   5   1
 -0.1160266023597076E+00   6   6   5   2
  0.3121549980344407E-01   6   6   5   3
 -0.2625233571858898E-01   6   6   5   4
  0.5243651814720079E+00   6   6   5   5
 -0.9326040231166099E-01   6   6   6   1
  0.2464663636262332E-01   6   6   6   2
  0.7262029801994452E-01   6   6   6   3
  0.1373390678259034E-01   6   6   6   4
 -0.1574935416048040E-01   6   6   6   5
  0.6099566415128845E+00   6   6   6   6
  0.3386699343321328E-01   7   1   1   1
 -0.1135771895341896E-01   7   1   2   1
 -0.8511417589784617E-02   7   1   2   2
 -0.1785277093367938E-01   7   1   3   1
 -0.1198480973532334E-01   7   1   3   2
 -0.2151394872400118E-03   7   1   3   3
  0.3331995411728902E-01   7   1   4   1
  0.3023499299267963E-01   7   1   4   2
 -0.2763369755011028E-02   7   1   4   3
 -0.2477986685204795E-01   7   1   4   4
  0.4057592434020015E-02   7   1   5   1
 -0.1663019241641556E-02   7   1   5   2
  0.7280247065215551E-03   7   1   5   3
 -0.1529834969519617E-01   7   1   5   4
  0.7116556645522583E-02   7   1   5   5
 -0.2158988350419228E-01   7   1   6   1
 -0.1334873032816569E-01   7   1   6   2
  0.1246350619279359E-01   7   1   6   3
 -0.1457118680171902E-01   7   1   6   4
 -0.9024048393017833E-03   7   1   6   5
  0.2680949755420622E-01   7   1   6   6
  0.4898290619110587E-01   7   1   7   1
  0.3976474008526908E-01   7   2   1   1
 -0.7184893543353627E-01   7   2   2   1
  0.5191165104119908E-01   7   2   2   2
 -0.4444450549759727E-02   7   2   3   1
 -0.1999582803785998E-01   7   2   3   2
  0.1805702576496265E-02   7   2   3   3
  0.8463437345915393E-02   7   2   4   1
  0.6558948666776593E-01   7   2   4   2
 -0.9196876510037744E-02   7   2   4   3
 -0.1544026778677679E-01   7   2   4   4
  0.2446386465521745E-01   7   2   5   1
 -0.2528588968354062E-01   7   2   5   2
  0.1577451387153855E-02   7   2   5   3
 -0.3603852249123561E-01   7   2   5   4
  0.4816746556488222E-01   7   2   5   5
 -0.4750567532850777E-01   7   2   6   1
  0.2557128830713546E-01   7   2   6   2
  0.3198762490007036E-02   7   2   6   3
 -0.2693558323175124E-03   7   2   6   4
 -0.3763991473217460E-01   7   2   6   5
  0.3681738548661193E-01   7   2   6   6
  0.3488487551162783E-01   7   2   7   1
  0.8700412883790756E-01   7   2   7   2
 -0.6257341426667433E-01   7   3   1   1
  0.1573453592634802E-01   7   3   2   1
 -0.4303299087303952E-01   7   3   2   2
  0.1946931303158034E-01   7   3   3   1
  0.2858255984914329E-01   7   3   3   2
  0.2063549950867703E-01   7   3   3   3
 -0.2267463187150624E-01   7   3   4   1
 -0.4789962158463378E-01   7   3   4   2
 -0.9178953563533231E-02   7   3   4   3
  0.3729702827193541E-01   7   3   4   4
 -0.4436375844643515E-02   7   3   5   1
  0.2443135125638591E-01   7   3   5   2
  0.1324396822877241E-02   7   3   5   3
  0.5913929653217274E-02   7   3   5   4
 -0.3634989759563990E-01   7   3   5   5
  0.2858030242092501E-01   7   3   6   1
 -0.4569584630886164E-02   7   3   6   2
 -0.1781795175052583E-01   7   3   6   3
  0.3315278143349001E-02   7   3   6   4
  0.8033530556540117E-02   7   3   6   5
 -0.4470809814703004E-01   7   3   6   6
 -0.1269505477481783E-01   7   3   7   1
 -0.1125655994458798E-01   7   3   7   2
  0.4022693508774923E-01   7   3   7   3
  0.1644775935059773E+00   7   4   1   1
 -0.7755584607283567E-02   7   4   2   1
  0.1443935760506672E+00   7   4   2   2
 -0.3676833651144612E-01   7   4   3   1
 -0.5032315883622346E-01   7   4   3   2
 -0.1012350500607025E-01   7   4   3   3
  0.2330171763338357E-01   7   4   4   1
  0.6014108665885910E-01   7   4   4   2
 -0.6696591054351463E-02   7   4   4   3
  0.8897416343157286E-02   7   4   4   4
 -0.4303436129349941E-04   7   4   5   1
 -0.6253551930063631E-01   7   4   5   2
  0.2025555603832625E-02   7   4   5   3
 -0.1229856132881429E-02   7   4   5   4
  0.1029986972505546E+00   7   4   5   5
 -0.5599336061954294E-01   7   4   6   1
  0.7728759372591140E-02   7   4   6   2
  0.3425196753205623E-01   7   4   6   3
  0.1890502164211015E-02   7   4   6   4
 -0.1188862369274341E-01   7   4   6   5
  0.1138602614325853E+00   7   4   6   6
 -0.1077719862795173E-02   7   4   7   1
 -0.2877870454770642E-02   7   4   7   2
 -0.5906015668445418E-01   7   4   7   3
  0.1204300595389121E+00   7   4   7   4
 -0.5685876748872031E-01   7   5   1   1
  0.4358886766485758E-01   7   5   2   1
 -0.5256403014021648E-01   7   5   2   2
  0.1217782676913219E-01   7   5   3   1
  0.2689440035850771E-01   7   5   3   2
  0.1079975668260737E-01   7   5   3   3
 -0.1849608964147960E-01   7   5   4   1
 -0.6329319042673127E-01   7   5   4   2
 -0.3963746305551571E-02   7   5   4   3
  0.3772027241894683E-01   7   5   4   4
 -0.1691192082700064E-01   7   5   5   1
  0.2632798606606489E-01   7   5   5   2
 -0.7474830050766892E-03   7   5   5   3
  0.2284847286711903E-01   7   5   5   4
 -0.4823929020204098E-01   7   5   5   5
  0.3380917550658198E-01   7   5   6   1
 -0.1847253830726660E-01   7   5   6   2
 -0.1294721023709100E-01   7   5   6   3
  0.9213891087520715E-04   7   5   6   4
  0.2365543676626911E-01   7   5   6   5
 -0.5090667448791605E-01   7   5   6   6
 -0.1965249438589232E-01   7   5   7   1
 -0.4533190918628374E-01   7   5   7   2
  0.3037274401484774E-01   7   5   7   3
 -0.3549510628155557E-01   7   5   7   4
  0.4469907702586884E-01   7   5   7   5
 -0.3977291730544560E-01   7   6   1   1
 -0.4592914683172993E-01   7   6   2   1
 -0.9498124761112519E-02   7   6   2   2
  0.1898188052542619E-01   7   6   3   1
  0.2323046383753517E-02   7   6   3   2
 -0.2093733479033454E-01   7   6   3   3
 -0.2153356524349787E-01   7   6   4   1
  0.5708570221356775E-02   7   6   4   2
  0.1304028402945282E-01   7   6   4   3
 -0.2672136874437755E-01   7   6   4   4
  0.1018168584186223E-01   7   6   5   1
  0.9697925244877312E-02   7   6   5   2
 -0.1244491499746784E-01   7   6   5   3
  0.3961957710899678E-02   7   6   5   4
  0.3532713337958193E-02   7   6   5   5
  0.1626591967372756E-01   7   6   6   1
  0.1600944617177489E-01   7   6   6   2
 -0.1183049869225244E-01   7   6   6   3
  0.1697401767038229E-01   7   6   6   4
 -0.2327463102378606E-01   7   6   6   5
 -0.2050297946708293E-01   7   6   6   6
 -0.1442668036577634E-01   7   6   7   1
  0.6493708866649364E-02   7   6   7   2
  0.5263065880465771E-02   7   6   7   3
 -0.5981062631874823E-02   7   6   7   4
 -0.7195066843219272E-04   7   6   7   5
  0.2793546110493335E-01   7   6   7   6
  0.6733544345726864E+00   7   7   1   1
  0.9998302438140100E-01   7   7   2   1
  0.6625861086549431E+00   7   7   2   2
 -0.5554852638720247E-01   7   7   3   1
 -0.1503253924372072E-01   7   7   3   2
  0.4425385857721220E+00   7   7   3   3
 -0.1074158421296307E-01   7   7   4   1
 -0.5178461432043541E-01   7   7   4   2
 -0.1501103874276547E+00   7   7   4   3
  0.6818726402291403E+00   7   7   4   4
 -0.1394186946351073E-02   7   7   5   1
 -0.1348908773162368E+00   7   7   5   2
  0.6267273875341478E-01   7   7   5   3
 -0.1767736063682634E-01   7   7   5   4
  0.4771598383786155E+00   7   7   5   5
 -0.9682467743197531E-01   7   7   6   1
  0.7430774128486251E-02   7   7   6   2
  0.5040298076422700E-01   7   7   6   3
  0.2065961444982500E-02   7   7   6   4
  0.2413767589048510E-01   7   7   6   5
  0.5503364952236497E+00   7   7   6   6
 -0.1700727620185596E-01   7   7   7   1
 -0.2793094327790013E-02   7   7   7   2
  0.2671016307625884E-01   7   7   7   3
  0.3924540127097348E-01   7   7   7   4
  0.1900687243694915E-01   7   7   7   5
 -0.4025103603677538E-01   7   7   7   6
  0.7603620236406839E+00   7   7   7   7
  0.3021943143831948E-17   8   1   1   1
  0.8348545007681687E-17   8   1   2   1
  0.3530256131503357E-16   8   1   2   2
  0.5667508745037157E-17   8   1   3   1
  0.2217938044602127E-17   8   1   3   2
  0.6036103131894560E-17   8   1   3   3
 -0.2180994208708719E-16   8   1   4   1
 -0.1336361504065679E-16   8   1   4   2
 -0.4879830185987811E-17   8   1   4   3
  0.3203196862696091E-16   8   1   4   4
 -0.2146312572465540E-17   8   1   5   1
 -0.1603889733125030E-16   8   1   5   2
  0.3827970134552912E-17   8   1   5   3
  0.5064667766778226E-17   8   1   5   4
  0.1015742174277123E-16   8   1   5   5
  0.7982496853129379E-17   8   1   6   1
  0.1026303938187144E-16   8   1   6   2
 -0.6677555896285818E-17   8   1   6   3
  0.1081064464279803E-16   8   1   6   4
  0.3329617015877011E-18   8   1   6   5
 -0.9472243779954095E-18   8   1   6   6
  0.1384993781820567E-16   8   1   7   1
 -0.2838079135653345E-16   8   1   7   2
 -0.5218631039256715E-17   8   1   7   3
  0.2245543706499530E-16   8   1   7   4
  0.1973470591411468E-16   8   1   7   5
  0.1073137790582421E-16   8   1   7   6
  0.6349261819460000E-16   8   1   7   7
  0.8283235915885263E-01   8   1   8   1
 -0.3786240415899486E-16   8   2   1   1
  0.6412841447797425E-16   8   2   2   1
 -0.5010332618864638E-16   8   2   2   2
  0.2887842019921447E-17   8   2   3   1
  0.1614866282431314E-16   8   2   3   2
 -0.1601212086014040E-17   8   2   3   3
 -0.4840310293131286E-17   8   2   4   1
 -0.5550276006867564E-16   8   2   4   2
  0.7452482974143102E-17   8   2   4   3
  0.1100530491993697E-16   8   2   4   4
 -0.2491038162060966E-16   8   2   5   1
  0.2458338652685433E-16   8   2   5   2
 -0.1648224782695311E-17   8   2   5   3
  0.3011657040661947E-16   8   2   5   4
 -0.4213325326973907E-16   8   2   5   5
  0.3757104893949986E-16   8   2   6   1
 -0.2411683811823945E-16   8   2   6   2
 -0.2233772288737454E-17   8   2   6   3
 -0.1961812798790330E-17   8   2   6   4
  0.3255537156018534E-16   8   2   6   5
 -0.3509931393263959E-16   8   2   6   6
 -0.3705093100913985E-16   8   2   7   1
 -0.6009776031450681E-16   8   2   7   2
  0.9842955300282817E-17   8   2   7   3
  0.1310357028000722E-17   8   2   7   4
  0.3411267314802715E-16   8   2   7   5
 -0.7000249791356023E-17   8   2   7   6
 -0.5888891867626734E-17   8   2   7   7
 -0.1945141706193679E-01   8   2   8   1
  0.2065543994726024E-01   8   2   8   2
  0.2670593474744087E-16   8   3   1   1
 -0.1259181921678959E-16   8   3   2   1
  0.1566297755909789E-16   8   3   2   2
 -0.1034616380772379E-16   8   3   3   1
 -0.1680109449121616E-16   8   3   3   2
 -0.1726404575196624E-16   8   3   3   3
  0.1364390176432094E-16   8   3   4   1
  0.3132846666919508E-16   8   3   4   2
  0.1084387917175218E-16   8   3   4   3
 -0.3487265523312883E-16   8   3   4   4
  0.4002389201647117E-17   8   3   5   1
 -0.1357926444183921E-16   8   3   5   2
 -0.1901315556275687E-17   8   3   5   3
 -0.3210475798485777E-17   8   3   5   4
  0.1388749498717632E-16   8   3   5   5
 -0.1826845456208494E-16   8   3   6   1
  0.3975242599167393E-17   8   3   6   2
  0.8945257780247785E-17   8   3   6   3
 -0.2862885845723192E-17   8   3   6   4
 -0.6185719403097696E-17   8   3   6   5
  0.1851092540148652E-16   8   3   6   6
 -0.1837231538771884E-17   8   3   7   1
  0.6623241839458417E-17   8   3   7   2
 -0.2421683920913900E-16   8   3   7   3
  0.3439363358334396E-16   8   3   7   4
 -0.2174187114939000E-16   8   3   7   5
 -0.2014220908870086E-17   8   3   7   6
 -0.3780542514986786E-16   8   3   7   7
 -0.1574848024663148E-01   8   3   8   1
 -0.8594442622906968E-03   8   3   8   2
  0.4544108302372247E-02   8   3   8   3
 -0.1254024096652228E-15   8   4   1   1
  0.9516602986121740E-17   8   4   2   1
 -0.1123850901870154E-15   8   4   2   2
  0.2605734492279306E-16   8   4   3   1
  0.3773588509370728E-16   8   4   3   2
  0.9237495056808135E-17   8   4   3   3
 -0.1507483839050859E-16   8   4   4   1
 -0.4477744972610915E-16   8   4   4   2
  0.5075587903528342E-17   8   4   4   3
 -0.8525181612722588E-17   8   4   4   4
 -0.1921993053039918E-17   8   4   5   1
  0.4731639792251883E-16   8   4   5   2
 -0.6399772420818722E-18   8   4   5   3
 -0.5063374813463619E-18   8   4   5   4
 -0.8041726942695550E-16   8   4   5   5
  0.4252630491559531E-16   8   4   6   1
 -0.7957552758778616E-17   8   4   6   2
 -0.2636318755572611E-16   8   4   6   3
 -0.3282801960733177E-17   8   4   6   4
  0.1102583557813026E-16   8   4   6   5
 -0.8767283385264796E-16   8   4   6   6
  0.1352127623941726E-16   8   4   7   1
  0.4678013435007948E-17   8   4   7   2
  0.4118049418432607E-16   8   4   7   3
 -0.8793133142863950E-16   8   4   7   4
  0.2833067688360705E-16   8   4   7   5
  0.3551416176134634E-17   8   4   7   6
 -0.2115188925052327E-16   8   4   7   7
  0.1791888603237817E-01   8   4   8   1
  0.2844434518155645E-02   8   4   8   2
 -0.5543582967297414E-02   8   4   8   3
  0.7501883079160054E-02   8   4   8   4
  0.4997802737996522E-16   8   5   1   1
 -0.4758110558460270E-16   8   5   2   1
  0.5216491416390602E-16   8   5   2   2
 -0.7985881021550230E-17   8   5   3   1
 -0.2376195730845165E-16   8   5   3   2
 -0.9278211497100745E-17   8   5   3   3
  0.1193314346635655E-16   8   5   4   1
  0.5651072276856315E-16   8   5   4   2
  0.3216580476538916E-17   8   5   4   3
 -0.3133269199414329E-16   8   5   4   4
  0.1541281668662619E-16   8   5   5   1
 -0.2063349863039809E-16   8   5   5   2
 -0.2416008176298317E-17   8   5   5   3
 -0.1949132108620391E-16   8   5   5   4
  0.5149634370499512E-16   8   5   5   5
 -0.2696375587735018E-16   8   5   6   1
  0.1749704228115116E-16   8   5   6   2
  0.9726767039168403E-17   8   5   6   3
  0.2173144520237869E-17   8   5   6   4
 -0.2569680931767542E-16   8   5   6   5
  0.4524791755492182E-16   8   5   6   6
  0.2797696942177015E-16   8   5   7   1
  0.3716706774218721E-16   8   5   7   2
 -0.2700878136805250E-16   8   5   7   3
  0.3189150155925667E-16   8   5   7   4
 -0.3407478187478074E-16   8   5   7   5
  0.3899622462564143E-17   8   5   7   6
 -0.9104962733958603E-17   8   5   7   7
  0.2112747110824826E-01   8   5   8   1
 -0.8196814032267716E-02   8   5   8   2
 -0.3167529063224336E-02   8   5   8   3
  0.3272859013152836E-02   8   5   8   4
  0.8551010166055846E-02   8   5   8   5
  0.2448330710046263E-16   8   6   1   1
  0.3089969658865020E-16   8   6   2   1
 -0.4021959817673738E-17   8   6   2   2
 -0.1549302678062465E-16   8   6   3   1
 -0.2065384152691479E-17   8   6   3   2
  0.3394143014041430E-17   8   6   3   3
  0.1785931850638842E-16   8   6   4   1
 -0.3548660129968187E-17   8   6   4   2
 -0.9185098280029479E-17   8   6   4   3
  0.6357490716934336E-17   8   6   4   4
 -0.5820181185224638E-17   8   6   5   1
 -0.5315796393449470E-17   8   6   5   2
  0.7358190478939206E-17   8   6   5   3
 -0.1607138699358902E-17   8   6   5   4
 -0.1413999655254280E-16   8   6   5   5
 -0.1108824937491470E-16   8   6   6   1
 -0.1227817407875206E-16   8   6   6   2
  0.8463267401815999E-17   8   6   6   3
 -0.1277718387650745E-16   8   6   6   4
  0.1630968153864763E-16   8   6   6   5
  0.9360895086213672E-17   8   6   6   6
  0.1341685884741113E-16   8   6   7   1
 -0.6230342769967176E-17   8   6   7   2
 -0.3495304122672829E-17   8   6   7   3
  0.4858476584370065E-17   8   6   7   4
  0.1694723787419040E-17   8   6   7   5
 -0.9954696867736074E-17   8   6   7   6
  0.1592238292588203E-16   8   6   7   7
 -0.1937539856916671E-03   8   6   8   1
  0.9963918746337911E-03   8   6   8   2
  0.1433583474435449E-02   8   6   8   3
  0.9578559327340669E-03   8   6   8   4
 -0.7972482782187870E-03   8   6   8   5
  0.1821506095942570E-01   8   6   8   6
 -0.5842489533145640E-17   8   7   1   1
 -0.1013248802360570E-15   8   7   2   1
 -0.6700217722950279E-16   8   7   2   2
 -0.1657415103641581E-16   8   7   3   1
 -0.4186023181401833E-16   8   7   3   2
 -0.1233307383856838E-15   8   7   3   3
  0.4888659200651947E-16   8   7   4   1
  0.1060835691913648E-15   8   7   4   2
  0.5019080188187691E-16   8   7   4   3
 -0.2299004912604192E-15   8   7   4   4
  0.3092977536172639E-16   8   7   5   1
  0.1619515689010189E-16   8   7   5   2
 -0.3056382925306613E-16   8   7   5   3
 -0.5409494937093683E-17   8   7   5   4
 -0.1931489547929765E-16   8   7   5   5
 -0.2946213815955275E-18   8   7   6   1
  0.1226414742988959E-16   8   7   6   2
  0.1508840794221763E-16   8   7   6   3
  0.5378272220935146E-17   8   7   6   4
 -0.3600013195097508E-16   8   7   6   5
 -0.1026336633642241E-16   8   7   6   6
  0.6395542789692238E-16   8   7   7   1
  0.2706789479776890E-16   8   7   7   2
 -0.6261664940173529E-16   8   7   7   3
  0.6351480172976085E-16   8   7   7   4
 -0.4686677114511411E-16   8   7   7   5
  0.1493164763035948E-16   8   7   7   6
 -0.2134324070360290E-15   8   7   7   7
  0.2566712274131907E-01   8   7   8   1
 -0.4545561172706070E-02   8   7   8   2
 -0.5798310099145819E-02   8   7   8   3
  0.7479634432209401E-02   8   7   8   4
  0.5796532011504395E-02   8   7   8   5
  0.5283601565876997E-04   8   7   8   6
  0.1164060313246654E-01   8   7   8   7
  0.8729592072008868E+00   8   8   1   1
 -0.5275474710361311E-01   8   8   2   1
  0.7590899881905473E+00   8   8   2   2
 -0.9713651771785778E-01   8   8   3   1
 -0.9130703385834787E-01   8   8   3   2
  0.3688243726160380E+00   8   8   3   3
  0.6483189209809660E-01   8   8   4   1
  0.1145868023033438E+00   8   8   4   2
 -0.1085869928208738E+00   8   8   4   3
  0.5008612980570518E+00   8   8   4   4
  0.5352763263800786E-01   8   8   5   1
 -0.1466707908075715E+00   8   8   5   2
  0.2669694777548776E-01   8   8   5   3
 -0.3050824381706851E-01   8   8   5   4
  0.5997813936460527E+00   8   8   5   5
 -0.1289658452459217E+00   8   8   6   1
  0.3490700145273706E-01   8   8   6   2
  0.9118172586785134E-01   8   8   6   3
  0.1452525037076224E-01   8   8   6   4
 -0.3644499810615964E-01   8   8   6   5
  0.7058437059608748E+00   8   8   6   6
  0.5864328477360498E-01   8   8   7   1
  0.4728092976969123E-01   8   8   7   2
 -0.6514999300437446E-01   8   8   7   3
  0.1523514246493834E+00   8   8   7   4
 -0.5996090216853334E-01   8   8   7   5
 -0.2328563775355219E-01   8   8   7   6
  0.6057699528614694E+00   8   8   7   7
 -0.5578206374159770E-16   8   8   8   1
 -0.4155065468352442E-16   8   8   8   2
  0.3661042158722982E-16   8   8   8   3
 -0.1282924774974490E-15   8   8   8   4
  0.4827166723307923E-16   8   8   8   5
  0.2324945062150765E-16   8   8   8   6
  0.9263586786915828E-16   8   8   8   7
  0.9848570277322479E+00   8   8   8   8
  0.8776789966651573E-02   9   1   1   1
  0.1809644951066900E-01   9   1   2   1
  0.4027226448847439E-01   9   1   2   2
 -0.6016303115410741E-02   9   1   3   1
 -0.1831018846173882E-01   9   1   3   2
  0.5651686836999201E-02   9   1   3   3
 -0.3358137051281888E-03   9   1   4   1
  0.2402926302461542E-01   9   1   4   2
 -0.5570903675988165E-02   9   1   4   3
  0.3658888333994320E-02   9   1   4   4
 -0.2338172922550391E-01   9   1   5   1
 -0.1074858481228514E-01   9   1   5   2
  0.7892676751514682E-02   9   1   5   3
 -0.9755900162982726E-02   9   1   5   4
  0.2046049371972925E-01   9   1   5   5
 -0.1619787376727102E-01   9   1   6   1
 -0.8296283205297390E-02   9   1   6   2
  0.6061631665031001E-02   9   1   6   3
 -0.5338358377783537E-02   9   1   6   4
  0.5811215300216622E-02   9   1   6   5
  0.2856125945978263E-02   9   1   6   6
 -0.1652343698360524E-01   9   1   7   1
  0.1114900010344001E-01   9   1   7   2
 -0.2134456473155069E-02   9   1   7   3
  0.9337920094500636E-02   9   1   7   4
 -0.8092117628772214E-02   9   1   7   5
 -0.8742617376584320E-03   9   1   7   6
  0.1710874372184186E-01   9   1   7   7
  0.1809516222604521E-16   9   1   8   1
 -0.6930707927110881E-17   9   1   8   2
  0.2176787679891787E-18   9   1   8   3
 -0.5596615795200121E-17   9   1   8   4
  0.6273556391252309E-17   9   1   8   5
 -0.6908276207441334E-17   9   1   8   6
 -0.4011118181004863E-16   9   1   8   7
 -0.4788742405449530E-01   9   1   8   8
  0.6756691986254224E-01   9   1   9   1
  0.4910866054808549E-01   9   2   1   1
  0.8208302127433290E-01   9   2   2   1
 -0.1933721282760554E-01   9   2   2   2
 -0.3685167144129663E-01   9   2   3   1
 -0.8083710745134941E-02   9   2   3   2
  0.1830968448627000E-01   9   2   3   3
  0.4875831106002545E-01   9   2   4   1
 -0.6914730321449284E-02   9   2   4   2
 -0.8022235056268610E-02   9   2   4   3
  0.4707923702158317E-03   9   2   4   4
 -0.1790028046596126E-01   9   2   5   1
 -0.2188153721299135E-01   9   2   5   2
  0.1948850579656613E-01   9   2   5   3
 -0.9999637024551889E-02   9   2   5   4
 -0.2296843356660316E-01   9   2   5   5
 -0.1848685943545772E-01   9   2   6   1
 -0.3911666214156054E-01   9   2   6   2
  0.2001326713638524E-01   9   2   6   3
 -0.2766020584340017E-01   9   2   6   4
  0.4014085361451802E-01   9   2   6   5
  0.2499291141341576E-01   9   2   6   6
  0.2824609430806567E-01   9   2   7   1
 -0.2213792981576090E-01   9   2   7   2
 -0.4673560474316529E-02   9   2   7   3
  0.2150349521610940E-02   9   2   7   4
  0.4451877999197273E-02   9   2   7   5