 &FCI NORB=  4,NELEC=  4,MS2= 0,
  ORBSYM=1,1,5,5,
  ISYM=1,
 /
  0.6702415486707399E+00   1   1   1   1
 -0.1491166387156808E+00   2   1   1   1
  0.1161416044368032E+00   2   1   2   1
  0.6053203188094433E+00   2   2   1   1
 -0.1303621773294057E+00   2   2   2   1
  0.5723714364323678E+00   2   2   2   2
  0.6796844274394421E+00   3   3   1   1
 -0.1659550665575686E+00   3   3   2   1
  0.6118879785697557E+00   3   3   2   2
  0.6952094363721831E+00   3   3   3   3
 -0.1605670493874036E+00   4   3   1   1
  0.1106068228563702E+00   4   3   2   1
 -0.1448564309600580E+00   4   3   2   2
 -0.1706959712408153E+00   4   3   3   3
  0.1152579971495736E+00   4   3   4   3
  0.5622315676732943E+00   4   4   1   1
 -0.1229259797623354E+00   4   4   2   1
  0.5306326559809504E+00   4   4   2   2
  0.5752667018002847E+00   4   4   3   3
 -0.1245456472212765E+00   4   4   4   3
  0.5100077796459649E+00   4   4   4   4
  0.3523869839407588E+00   3   1   3   1
 -0.1775779852486794E+00   3   2   3   1
  0.1329039048763105E+00   3   2   3   2
 -0.1319741104413635E+00   4   1   3   1
  0.1119148589294229E+00   4   1   3   2
  0.9839127534662849E-01   4   1   4   1
  0.2713246557064748E+00   4   2   3   1
 -0.1417894148991532E+00   4   2   3   2
 -0.1054255162462383E+00   4   2   4   1
  0.2298499635769142E+00   4   2   4   2
 -0.2647460513806928E+01   1   1   0   0
  0.3034487865653506E+00   2   1   0   0
 -0.8240604957890119E+00   2   2   0   0
 -0.2557408473269112E+01   3   3   0   0
  0.3598559595290176E+00   4   3   0   0
 -0.5270884810065255E+00   4   4   0   0
  0.1333333333333333E+01   0   0   0   0
