 &FCI NORB=  2,NELEC=  2,MS2= 0,
  ORBSYM=1,1,
  ISYM=1,
  METHOD=IPT,
  MAXIT=  100,
  NSTATE=    1,
  MAXORDER=  3,
  EXPLICIT1=    0,
  PARALLEL_STRINGSET=    0,
  DENSITY=    2,
  SCS_OPPOSITE= 1.0000000000000    ,
  SCS_SAME= 1.0000000000000    ,
  JUNK=1,
 /
  0.1026864533040684E+01   1   1   1   1
  0.0000000000000000E+00   2   1   1   1
  0.0000000000000000E+00   2   1   2   1
  0.0000000000000000E-06   2   2   1   1
  0.0000000000000000E+00   2   2   2   1
  0.0000000000000000E-03   2   2   2   2
 -0.1941012505141700E+01   1   1   0   0
  0.0000000000000000E+00   2   1   0   0
 -0.0000000000000000E-06   2   2   0   0
  0.0000000000000000E+00   0   0   0   0
