 &FCI NORB= 18,NELEC=  8,MS2= 0,
  ORBSYM=1,1,1,1,1,1,1,1,1,2,2,2,2,3,3,3,3,4,
  ISYM=1,
 /
  0.8814460418195403E+00   1   1   1   1
  0.9853692059619328E-02   2   1   1   1
  0.1663072673309716E+00   2   1   2   1
  0.7959460944524112E+00   2   2   1   1
 -0.3374406844840909E-01   2   2   2   1
  0.8019743326090846E+00   2   2   2   2
 -0.1066799342916677E+00   3   1   1   1
 -0.2843907201280750E-01   3   1   2   1
 -0.6789868297269719E-01   3   1   2   2
  0.3365989287524141E-01   3   1   3   1
 -0.9630469934552885E-01   3   2   1   1
  0.1788114395273171E-01   3   2   2   1
 -0.8320986867904143E-01   3   2   2   2
  0.2432301679752441E-01   3   2   3   1
  0.3828395023961675E-01   3   2   3   2
  0.3919672824792182E+00   3   3   1   1
  0.4712778821891944E-01   3   3   2   1
  0.3839828969993631E+00   3   3   2   2
 -0.1447954642158444E-01   3   3   3   1
  0.1154947321320154E-01   3   3   3   2
  0.3625544185123892E+00   3   3   3   3
  0.5802754415340151E-01   4   1   1   1
  0.2305391250992695E-01   4   1   2   1
  0.1958757939670046E-02   4   1   2   2
 -0.3064729024312579E-01   4   1   3   1
 -0.2190517770277354E-01   4   1   3   2
 -0.1286017052655962E-02   4   1   3   3
  0.4719388058045222E-01   4   1   4   1
  0.9877299795923657E-01   4   2   1   1
 -0.8113251969956903E-01   4   2   2   1
  0.8403828974975490E-01   4   2   2   2
 -0.2447874836355080E-01   4   2   3   1
 -0.5504128063448661E-01   4   2   3   2
 -0.2808338461452953E-01   4   2   3   3
  0.3799804273641769E-01   4   2   4   1
  0.1235027878333033E+00   4   2   4   2
 -0.1280987736231081E+00   4   3   1   1
 -0.2613650603436349E-01   4   3   2   1
 -0.1262040360864776E+00   4   3   2   2
  0.1740840461585986E-01   4   3   3   1
  0.6543495608167714E-02   4   3   3   2
 -0.5102793998882157E-01   4   3   3   3
  0.4246173420370146E-02   4   3   4   1
  0.1702331144353774E-01   4   3   4   2
  0.5439671034733100E-01   4   3   4   3
  0.5601401680883873E+00   4   4   1   1
  0.9584156856205180E-01   4   4   2   1
  0.5767274215272918E+00   4   4   2   2
 -0.2715968467924859E-01   4   4   3   1
  0.1341758435453350E-01   4   4   3   2
  0.4202676365114616E+00   4   4   3   3
 -0.4172556617576921E-01   4   4   4   1
 -0.1038410484374696E+00   4   4   4   2
 -0.1396449223658491E+00   4   4   4   3
  0.6950607159606843E+00   4   4   4   4
  0.2467763561737997E-01   5   1   1   1
 -0.4520428214905464E-01   5   1   2   1
  0.2165259214733885E-01   5   1   2   2
  0.4638382754051120E-02   5   1   3   1
  0.3396656693770251E-02   5   1   3   2
  0.2412892988864263E-02   5   1   3   3
 -0.3240526971094127E-02   5   1   4   1
  0.1942455187433767E-01   5   1   4   2
  0.3471161471603853E-02   5   1   4   3
 -0.6643438377170304E-02   5   1   4   4
  0.3754249703631583E-01   5   1   5   1
 -0.1737811495222162E+00   5   2   1   1
 -0.1434183463027142E-01   5   2   2   1
 -0.1590230259161084E+00   5   2   2   2
  0.3792070287684762E-01   5   2   3   1
  0.2731051158349616E-01   5   2   3   2
 -0.3848473955054377E-01   5   2   3   3
 -0.1297299375778431E-01   5   2   4   1
 -0.2904708944865426E-01   5   2   4   2
  0.3638160843565906E-01   5   2   4   3
 -0.9831106012673291E-01   5   2   4   4
 -0.2037191898584342E-01   5   2   5   1
  0.1065700064039134E+00   5   2   5   2
  0.4465325957251592E-01   5   3   1   1
  0.3220158486749546E-01   5   3   2   1
  0.3457477263502149E-01   5   3   2   2
 -0.1200211714913045E-01   5   3   3   1
  0.2498409265633245E-02   5   3   3   2
  0.3173727795951933E-01   5   3   3   3
  0.7192221262364544E-02   5   3   4   1
 -0.7085178021280225E-02   5   3   4   2
 -0.1520256598504592E-01   5   3   4   3
  0.4959826089544403E-01   5   3   4   4
  0.3640473885674308E-02   5   3   5   1
 -0.3192707092870695E-01   5   3   5   2
  0.2141145039403163E-01   5   3   5   3
 -0.3565016859795458E-01   5   4   1   1
  0.1454698894679479E-01   5   4   2   1
 -0.3110203427312431E-01   5   4   2   2
  0.1049037937913035E-01   5   4   3   1
  0.1109822594261235E-01   5   4   3   2
 -0.8580004723517366E-02   5   4   3   3
 -0.1270890926755363E-01   5   4   4   1
 -0.3250409469379813E-01   5   4   4   2
  0.6854451966579945E-02   5   4   4   3
  0.6913062355813504E-02   5   4   4   4
 -0.1208761365747768E-01   5   4   5   1
  0.2653433091543588E-01   5   4   5   2
 -0.9737849042082688E-02   5   4   5   3
  0.2505245943335144E-01   5   4   5   4
  0.6074037757126155E+00   5   5   1   1
 -0.6823340511183007E-01   5   5   2   1
  0.6200272027350546E+00   5   5   2   2
 -0.3645448392985162E-01   5   5   3   1
 -0.7292409477320015E-01   5   5   3   2
  0.3136194061302983E+00   5   5   3   3
  0.4130280212383696E-02   5   5   4   1
  0.8497205085125528E-01   5   5   4   2
 -0.7691753295055392E-01   5   5   4   3
  0.4184442484737583E+00   5   5   4   4
  0.1575008805402900E-02   5   5   5   1
 -0.5749063526611650E-01   5   5   5   2
 -0.8940814172073569E-02   5   5   5   3
 -0.1239445889710966E-01   5   5   5   4
  0.5930299214891260E+00   5   5   5   5
 -0.1592925577335390E+00   6   1   1   1
  0.7168151525816894E-02   6   1   2   1
 -0.1432954323946869E+00   6   1   2   2
  0.3956610288783288E-01   6   1   3   1
  0.3678650796705687E-01   6   1   3   2
 -0.2604448345164268E-01   6   1   3   3
 -0.2068329937614446E-01   6   1   4   1
 -0.5180070462898291E-01   6   1   4   2
  0.3378483510778305E-01   6   1   4   3
 -0.6079557494498426E-01   6   1   4   4
 -0.8615607756666348E-02   6   1   5   1
  0.8124029158576937E-01   6   1   5   2
 -0.1840413119214042E-01   6   1   5   3
  0.3022398719085399E-01   6   1   5   4
 -0.8130626681702942E-01   6   1   5   5
  0.9859714894366428E-01   6   1   6   1
  0.2366347519109984E-01   6   2   1   1
 -0.5408017093880245E-01   6   2   2   1
  0.4622349398926207E-01   6   2   2   2
  0.1023417291014844E-01   6   2   3   1
 -0.4290256145960750E-03   6   2   3   2
 -0.1369155497233036E-02   6   2   3   3
 -0.1724258831028613E-01   6   2   4   1
  0.2276833400695340E-01   6   2   4   2
  0.6437744577248872E-03   6   2   4   3
  0.1908196640860648E-02   6   2   4   4
  0.3483033091531249E-01   6   2   5   1
 -0.2182594500950401E-01   6   2   5   2
  0.1645512146588105E-04   6   2   5   3
 -0.1064912108989943E-01   6   2   5   4
  0.2494147919450721E-01   6   2   5   5
 -0.1330069554749434E-01   6   2   6   1
  0.4509272747051406E-01   6   2   6   2
  0.9811282339564867E-01   6   3   1   1
  0.1075064750984343E-01   6   3   2   1
  0.7561943836502219E-01   6   3   2   2
 -0.2189959519134248E-01   6   3   3   1
 -0.2257918423537224E-01   6   3   3   2
  0.8243126627704411E-02   6   3   3   3
  0.1936211233243001E-01   6   3   4   1
  0.2113909964175029E-01   6   3   4   2
 -0.1797454377476706E-01   6   3   4   3
  0.3152453246319618E-01   6   3   4   4
 -0.5224504400999648E-02   6   3   5   1
 -0.2145223522932655E-01   6   3   5   2
  0.5254925643594982E-02   6   3   5   3
 -0.4557463033516701E-02   6   3   5   4
  0.6022568105353976E-01   6   3   5   5
 -0.2462507811518318E-01   6   3   6   1
 -0.7079803654855027E-02   6   3   6   2
  0.2585938157365990E-01   6   3   6   3
  0.2313501525842060E-02   6   4   1   1
 -0.2798178706284776E-01   6   4   2   1
  0.2077400797848901E-01   6   4   2   2
  0.1225476658040714E-01   6   4   3   1
  0.2690661893034369E-02   6   4   3   2
 -0.4352749343804954E-02   6   4   3   3
 -0.1679730124470462E-01   6   4   4   1
 -0.1369290970599316E-02   6   4   4   2
  0.1034238653478306E-02   6   4   4   3
  0.1055910114348963E-01   6   4   4   4
  0.1295993010807153E-01   6   4   5   1
  0.5060805697399348E-03   6   4   5   2
 -0.5327718134114956E-02   6   4   5   3
  0.5731541560845637E-02   6   4   5   4
  0.1905926837424672E-01   6   4   5   5
  0.1345281105357539E-01   6   4   6   1
  0.1805174455454588E-01   6   4   6   2
 -0.3815986509743984E-02   6   4   6   3
  0.1791547246934621E-01   6   4   6   4
 -0.1776847885039953E-01   6   5   1   1
  0.8067332636781913E-01   6   5   2   1
 -0.4545830708728457E-01   6   5   2   2
 -0.1015157312549969E-01   6   5   3   1
  0.1406039847377351E-01   6   5   3   2
  0.1875991928696594E-01   6   5   3   3
  0.1496321309673001E-01   6   5   4   1
 -0.4088145968520626E-01   6   5   4   2
 -0.4035356277788098E-02   6   5   4   3
  0.2790859185645095E-01   6   5   4   4
 -0.1955444726702078E-01   6   5   5   1
  0.4101320286882718E-02   6   5   5   2
  0.1610308096965009E-01   6   5   5   3
  0.1040802764929134E-01   6   5   5   4
 -0.5709607165894567E-01   6   5   5   5
  0.1904366922036552E-01   6   5   6   1
 -0.2927403092205061E-01   6   5   6   2
  0.2901930018723242E-02   6   5   6   3
 -0.1251961725153600E-01   6   5   6   4
  0.4981999359164458E-01   6   5   6   5
  0.7030077718503994E+00   6   6   1   1
 -0.1335836431329823E-01   6   6   2   1
  0.6465060861516342E+00   6   6   2   2
 -0.6621083374289925E-01   6   6   3   1
 -0.6591534883523914E-01   6   6   3   2
  0.3588899245261204E+00   6   6   3   3
  0.4031347704014808E-01   6   6   4   1
  0.7752987166548363E-01   6   6   4   2
 -0.8656328796090673E-01   6   6   4   3
  0.4692026634827703E+00   6   6   4   4
  0.2889929919553072E-01   6   6   5   1
 -0.1160266023437588E+00   6   6   5   2
  0.3121549983690425E-01   6   6   5   3
 -0.2625233572883123E-01   6   6   5   4
  0.5243651814510530E+00   6   6   5   5
 -0.9326040231011645E-01   6   6   6   1
  0.2464663636189945E-01   6   6   6   2
  0.7262029803058645E-01   6   6   6   3
  0.1373390679287023E-01   6   6   6   4
 -0.1574935415224266E-01   6   6   6   5
  0.6099566415165278E+00   6   6   6   6
  0.3386699344163051E-01   7   1   1   1
 -0.1135771894540634E-01   7   1   2   1
 -0.8511417598505164E-02   7   1   2   2
 -0.1785277093492545E-01   7   1   3   1
 -0.1198480973072173E-01   7   1   3   2
 -0.2151394688313083E-03   7   1   3   3
  0.3331995410615016E-01   7   1   4   1
  0.3023499298605949E-01   7   1   4   2
 -0.2763369772966075E-02   7   1   4   3
 -0.2477986683887292E-01   7   1   4   4
  0.4057592426674557E-02   7   1   5   1
 -0.1663019244652161E-02   7   1   5   2
  0.7280247079501758E-03   7   1   5   3
 -0.1529834968894691E-01   7   1   5   4
  0.7116556644502732E-02   7   1   5   5
 -0.2158988349728225E-01   7   1   6   1
 -0.1334873032568456E-01   7   1   6   2
  0.1246350620287418E-01   7   1   6   3
 -0.1457118680461855E-01   7   1   6   4
 -0.9024048344609195E-03   7   1   6   5
  0.2680949755917797E-01   7   1   6   6
  0.4898290617939546E-01   7   1   7   1
  0.3976474007246681E-01   7   2   1   1
 -0.7184893543697714E-01   7   2   2   1
  0.5191165096823336E-01   7   2   2   2
 -0.4444450518719842E-02   7   2   3   1
 -0.1999582803664721E-01   7   2   3   2
  0.1805702599687047E-02   7   2   3   3
  0.8463437321279009E-02   7   2   4   1
  0.6558948665920661E-01   7   2   4   2
 -0.9196876538912001E-02   7   2   4   3
 -0.1544026777426458E-01   7   2   4   4
  0.2446386464980808E-01   7   2   5   1
 -0.2528588966222464E-01   7   2   5   2
  0.1577451391329927E-02   7   2   5   3
 -0.3603852248971640E-01   7   2   5   4
  0.4816746554976382E-01   7   2   5   5
 -0.4750567531703985E-01   7   2   6   1
  0.2557128830319821E-01   7   2   6   2
  0.3198762481976508E-02   7   2   6   3
 -0.2693558345465211E-03   7   2   6   4
 -0.3763991472390348E-01   7   2   6   5
  0.3681738546413262E-01   7   2   6   6
  0.3488487549909005E-01   7   2   7   1
  0.8700412883748891E-01   7   2   7   2
 -0.6257341430045478E-01   7   3   1   1
  0.1573453596515348E-01   7   3   2   1
 -0.4303299087692947E-01   7   3   2   2
  0.1946931303738096E-01   7   3   3   1
  0.2858255988545319E-01   7   3   3   2
  0.2063549948126533E-01   7   3   3   3
 -0.2267463186600048E-01   7   3   4   1
 -0.4789962162681737E-01   7   3   4   2
 -0.9178953536495962E-02   7   3   4   3
  0.3729702827694376E-01   7   3   4   4
 -0.4436375855378763E-02   7   3   5   1
  0.2443135126885865E-01   7   3   5   2
  0.1324396816546707E-02   7   3   5   3
  0.5913929669781391E-02   7   3   5   4
 -0.3634989762255100E-01   7   3   5   5
  0.2858030244483738E-01   7   3   6   1
 -0.4569584639912513E-02   7   3   6   2
 -0.1781795175721976E-01   7   3   6   3
  0.3315278139996356E-02   7   3   6   4
  0.8033530570941735E-02   7   3   6   5
 -0.4470809817545934E-01   7   3   6   6
 -0.1269505479504663E-01   7   3   7   1
 -0.1125655996856280E-01   7   3   7   2
  0.4022693510637744E-01   7   3   7   3
  0.1644775935027132E+00   7   4   1   1
 -0.7755584633522305E-02   7   4   2   1
  0.1443935760225464E+00   7   4   2   2
 -0.3676833652247763E-01   7   4   3   1
 -0.5032315889920515E-01   7   4   3   2
 -0.1012350495973900E-01   7   4   3   3
  0.2330171761043538E-01   7   4   4   1
  0.6014108667057579E-01   7   4   4   2
 -0.6696591078986611E-02   7   4   4   3
  0.8897416338486612E-02   7   4   4   4
 -0.4303435227358959E-04   7   4   5   1
 -0.6253551930072748E-01   7   4   5   2
  0.2025555621106002E-02   7   4   5   3
 -0.1229856138946051E-02   7   4   5   4
  0.1029986972496980E+00   7   4   5   5
 -0.5599336062486651E-01   7   4   6   1
  0.7728759371906105E-02   7   4   6   2
  0.3425196753620571E-01   7   4   6   3
  0.1890502177230698E-02   7   4   6   4
 -0.1188862369208649E-01   7   4   6   5
  0.1138602614392442E+00   7   4   6   6
 -0.1077719855288289E-02   7   4   7   1
 -0.2877870474632990E-02   7   4   7   2
 -0.5906015669312766E-01   7   4   7   3
  0.1204300595469195E+00   7   4   7   4
 -0.5685876750084880E-01   7   5   1   1
  0.4358886766215369E-01   7   5   2   1
 -0.5256403010099531E-01   7   5   2   2
  0.1217782675820991E-01   7   5   3   1
  0.2689440037525550E-01   7   5   3   2
  0.1079975665578116E-01   7   5   3   3
 -0.1849608962246540E-01   7   5   4   1
 -0.6329319042936732E-01   7   5   4   2
 -0.3963746277435839E-02   7   5   4   3
  0.3772027240604318E-01   7   5   4   4
 -0.1691192082479739E-01   7   5   5   1
  0.2632798606438809E-01   7   5   5   2
 -0.7474830124496630E-03   7   5   5   3
  0.2284847286476778E-01   7   5   5   4
 -0.4823929019458158E-01   7   5   5   5
  0.3380917550439129E-01   7   5   6   1
 -0.1847253830658880E-01   7   5   6   2
 -0.1294721023463036E-01   7   5   6   3
  0.9213890871188207E-04   7   5   6   4
  0.2365543675836992E-01   7   5   6   5
 -0.5090667448698794E-01   7   5   6   6
 -0.1965249437609141E-01   7   5   7   1
 -0.4533190916866869E-01   7   5   7   2
  0.3037274403634409E-01   7   5   7   3
 -0.3549510628838457E-01   7   5   7   4
  0.4469907701676658E-01   7   5   7   5
 -0.3977291730495981E-01   7   6   1   1
 -0.4592914680993938E-01   7   6   2   1
 -0.9498124788931556E-02   7   6   2   2
  0.1898188054958182E-01   7   6   3   1
  0.2323046398234344E-02   7   6   3   2
 -0.2093733478865390E-01   7   6   3   3
 -0.2153356525165452E-01   7   6   4   1
  0.5708570204835313E-02   7   6   4   2
  0.1304028402422846E-01   7   6   4   3
 -0.2672136871855611E-01   7   6   4   4
  0.1018168583295569E-01   7   6   5   1
  0.9697925247493591E-02   7   6   5   2
 -0.1244491500112148E-01   7   6   5   3
  0.3961957716091289E-02   7   6   5   4
  0.3532713327098146E-02   7   6   5   5
  0.1626591968033617E-01   7   6   6   1
  0.1600944617039692E-01   7   6   6   2
 -0.1183049870769857E-01   7   6   6   3
  0.1697401767203260E-01   7   6   6   4
 -0.2327463101601782E-01   7   6   6   5
 -0.2050297948693039E-01   7   6   6   6
 -0.1442668037877785E-01   7   6   7   1
  0.6493708853372596E-02   7   6   7   2
  0.5263065892779147E-02   7   6   7   3
 -0.5981062644971300E-02   7   6   7   4
 -0.7195065244482504E-04   7   6   7   5
  0.2793546110450870E-01   7   6   7   6
  0.6733544345295150E+00   7   7   1   1
  0.9998302434438476E-01   7   7   2   1
  0.6625861087044983E+00   7   7   2   2
 -0.5554852646023976E-01   7   7   3   1
 -0.1503253934624144E-01   7   7   3   2
  0.4425385857991652E+00   7   7   3   3
 -0.1074158421978343E-01   7   7   4   1
 -0.5178461437833941E-01   7   7   4   2
 -0.1501103874052857E+00   7   7   4   3
  0.6818726402256347E+00   7   7   4   4
 -0.1394186919167123E-02   7   7   5   1
 -0.1348908772902134E+00   7   7   5   2
  0.6267273880383617E-01   7   7   5   3
 -0.1767736065471237E-01   7   7   5   4
  0.4771598383559319E+00   7   7   5   5
 -0.9682467744094148E-01   7   7   6   1
  0.7430774110786742E-02   7   7   6   2
  0.5040298078953565E-01   7   7   6   3
  0.2065961448548315E-02   7   7   6   4
  0.2413767589977245E-01   7   7   6   5
  0.5503364952369790E+00   7   7   6   6
 -0.1700727617628392E-01   7   7   7   1
 -0.2793094316031031E-02   7   7   7   2
  0.2671016307378971E-01   7   7   7   3
  0.3924540126293719E-01   7   7   7   4
  0.1900687242431037E-01   7   7   7   5
 -0.4025103602354574E-01   7   7   7   6
  0.7603620236472881E+00   7   7   7   7
  0.1226223105738064E-17   8   1   1   1
  0.2387222192556491E-17   8   1   2   1
 -0.2468389068960341E-16   8   1   2   2
 -0.1019546699648021E-16   8   1   3   1
 -0.4873239777166600E-18   8   1   3   2
  0.1185461457324205E-17   8   1   3   3
  0.2299827494315063E-16   8   1   4   1
  0.4781888760911251E-17   8   1   4   2
 -0.3209370334894673E-18   8   1   4   3
 -0.1570697400494808E-16   8   1   4   4
 -0.2564817529613986E-17   8   1   5   1
  0.5440982342129082E-17   8   1   5   2
  0.1301540633674877E-17   8   1   5   3
 -0.5567500755382275E-17   8   1   5   4
 -0.1139260603744830E-16   8   1   5   5
 -0.9645591061833083E-17   8   1   6   1
 -0.1521376290893598E-16   8   1   6   2
  0.8358967796033259E-17   8   1   6   3
 -0.1329384575191130E-16   8   1   6   4
  0.8061861320917324E-17   8   1   6   5
  0.6011456415110358E-17   8   1   6   6
 -0.1154946787996600E-16   8   1   7   1
  0.1934790618285027E-16   8   1   7   2
  0.4121201328214506E-17   8   1   7   3
 -0.1773287951059325E-16   8   1   7   4
 -0.1625042102029620E-16   8   1   7   5
 -0.1529191951425279E-16   8   1   7   6
 -0.4027219874019756E-16   8   1   7   7
  0.8283235916234230E-01   8   1   8   1
  0.2692113744794038E-16   8   2   1   1
 -0.5637576252004130E-16   8   2   2   1
  0.4704988095215054E-16   8   2   2   2
  0.1262328808719731E-17   8   2   3   1
 -0.1342393964322705E-16   8   2   3   2
  0.3222961649313358E-17   8   2   3   3
 -0.3533806760126803E-17   8   2   4   1
  0.4680372069717362E-16   8   2   4   2
 -0.8754059189442850E-17   8   2   4   3
 -0.9494592328375542E-18   8   2   4   4
  0.2032634293023954E-16   8   2   5   1
 -0.2334024088837067E-16   8   2   5   2
  0.2324671731601013E-17   8   2   5   3
 -0.2757154562827145E-16   8   2   5   4
  0.4066897225056384E-16   8   2   5   5
 -0.3639837473824782E-16   8   2   6   1
  0.2559217247633750E-16   8   2   6   2
 -0.4840744497038369E-18   8   2   6   3
  0.3594445076244779E-17   8   2   6   4
 -0.3199075569456905E-16   8   2   6   5
  0.2520031729357642E-16   8   2   6   6
  0.2525477467961156E-16   8   2   7   1
  0.5645983508241221E-16   8   2   7   2
 -0.6000415501862724E-17   8   2   7   3
 -0.2539092356771342E-17   8   2   7   4
 -0.3034960736878366E-16   8   2   7   5
  0.8931573214871008E-17   8   2   7   6
  0.1171079021923691E-16   8   2   7   7
 -0.1945141706729648E-01   8   2   8   1
  0.2065543994524832E-01   8   2   8   2
 -0.4176262466485693E-16   8   3   1   1
  0.1637023248548833E-16   8   3   2   1
 -0.2983724933905609E-16   8   3   2   2
  0.1347210712809867E-16   8   3   3   1
  0.2078166794500560E-16   8   3   3   2
  0.1652874081972708E-16   8   3   3   3
 -0.1566207451328455E-16   8   3   4   1
 -0.3675455339672707E-16   8   3   4   2
 -0.8181127404028379E-17   8   3   4   3
  0.3167572450545020E-16   8   3   4   4
 -0.4353594499821676E-17   8   3   5   1
  0.1875981992047723E-16   8   3   5   2
  0.1542796326265755E-17   8   3   5   3
  0.5143355265200330E-17   8   3   5   4
 -0.2534286892574809E-16   8   3   5   5
  0.2298242024118539E-16   8   3   6   1
 -0.5092271222034796E-17   8   3   6   2
 -0.1184163553964678E-16   8   3   6   3
  0.2474740455984422E-17   8   3   6   4
  0.8156753593214344E-17   8   3   6   5
 -0.2995935413807444E-16   8   3   6   6
 -0.4107696610497699E-18   8   3   7   1
 -0.9259386174448888E-17   8   3   7   2
  0.2701537619907052E-16   8   3   7   3
 -0.4004805297357121E-16   8   3   7   4
  0.2468217555440566E-16   8   3   7   5
  0.2119555962716954E-17   8   3   7   6
  0.2921261866519030E-16   8   3   7   7
 -0.1574848025016571E-01   8   3   8   1
 -0.8594442663235455E-03   8   3   8   2
  0.4544108307387523E-02   8   3   8   3
  0.1278164953596457E-15   8   4   1   1
 -0.2138752438767205E-16   8   4   2   1
  0.1148229524284103E-15   8   4   2   2
 -0.2695069359790513E-16   8   4   3   1
 -0.4109340184325797E-16   8   4   3   2
 -0.1141646576559043E-16   8   4   3   3
  0.1812616098370483E-16   8   4   4   1
  0.5631001091873313E-16   8   4   4   2
 -0.2621360193948558E-17   8   4   4   3
 -0.4554801787707286E-17   8   4   4   4
  0.4938838442156491E-17   8   4   5   1
 -0.4871842219000413E-16   8   4   5   2
 -0.8119463648490779E-19   8   4   5   3
 -0.4114351170154457E-17   8   4   5   4
  0.8551958346721435E-16   8   4   5   5
 -0.4575169618845575E-16   8   4   6   1
  0.1125010601610520E-16   8   4   6   2
  0.2649411256466654E-16   8   4   6   3
  0.3421609090498071E-17   8   4   6   4
 -0.1581718915702547E-16   8   4   6   5
  0.9165671904813309E-16   8   4   6   6
 -0.8877296702716133E-17   8   4   7   1
  0.3815827470017313E-17   8   4   7   2
 -0.4414960636806369E-16   8   4   7   3
  0.8896063126007539E-16   8   4   7   4
 -0.3447624261900432E-16   8   4   7   5
 -0.1918820677716818E-17   8   4   7   6
  0.1452253029142809E-16   8   4   7   7
  0.1791888602577731E-01   8   4   8   1
  0.2844434518692091E-02   8   4   8   2
 -0.5543582969921069E-02   8   4   8   3
  0.7501883077279857E-02   8   4   8   4
 -0.5954034092103230E-16   8   5   1   1
  0.4176620667588809E-16   8   5   2   1
 -0.5989625419322329E-16   8   5   2   2
  0.9521145950433825E-17   8   5   3   1
  0.2409962016642604E-16   8   5   3   2
  0.5964541472517604E-17   8   5   3   3
 -0.1054966379346362E-16   8   5   4   1
 -0.5429552126859615E-16   8   5   4   2
 -0.2457895889529622E-18   8   5   4   3
  0.2042068778152646E-16   8   5   4   4
 -0.1672013942009685E-16   8   5   5   1
  0.2757964320279334E-16   8   5   5   2
 -0.3266083114666863E-18   8   5   5   3
  0.2002367583850405E-16   8   5   5   4
 -0.5200654515529747E-16   8   5   5   5
  0.3201517708663909E-16   8   5   6   1
 -0.1980118285701051E-16   8   5   6   2
 -0.9975556586006283E-17   8   5   6   3
 -0.2976463557721906E-17   8   5   6   4
  0.2537044579042730E-16   8   5   6   5
 -0.4973107964665577E-16   8   5   6   6
 -0.2358406164233100E-16   8   5   7   1
 -0.3691978506686437E-16   8   5   7   2
  0.2630400605487912E-16   8   5   7   3
 -0.3440040982200153E-16   8   5   7   4
  0.3360295938804305E-16   8   5   7   5
 -0.4075081214479967E-17   8   5   7   6
 -0.2092756256156692E-17   8   5   7   7
  0.2112747110020254E-01   8   5   8   1
 -0.8196814029736998E-02   8   5   8   2
 -0.3167529061811513E-02   8   5   8   3
  0.3272859009941073E-02   8   5   8   4
  0.8551010161080340E-02   8   5   8   5
 -0.1102030710042884E-17   8   6   1   1
 -0.3672176117000998E-16   8   6   2   1
  0.2553692741733280E-16   8   6   2   2
  0.1432992514332528E-16   8   6   3   1
  0.8338493434616396E-20   8   6   3   2
  0.4985500362359696E-17   8   6   3   3
 -0.1762760593309496E-16   8   6   4   1
  0.7429777939465884E-17   8   6   4   2
  0.6786522373547183E-17   8   6   4   3
  0.5242660902754889E-17   8   6   4   4
  0.1014062603360203E-16   8   6   5   1
  0.2475171548223540E-17   8   6   5   2
 -0.7388906539610469E-17   8   6   5   3
  0.1278640818720567E-17   8   6   5   4
  0.2969070048545733E-16   8   6   5   5
  0.1004759709005874E-16   8   6   6   1
  0.1457501608986884E-16   8   6   6   2
 -0.7149938825946861E-17   8   6   6   3
  0.1527616114206486E-16   8   6   6   4
 -0.1868011346835002E-16   8   6   6   5
  0.1162892332917785E-16   8   6   6   6
 -0.1349239539230720E-16   8   6   7   1
  0.7149498205021558E-17   8   6   7   2
  0.2316028228359530E-17   8   6   7   3
 -0.1502778137714165E-17   8   6   7   4
 -0.2958981948324776E-17   8   6   7   5
  0.1239045095921253E-16   8   6   7   6
 -0.2102566495785306E-17   8   6   7   7
 -0.1937539845091272E-03   8   6   8   1
  0.9963918748740464E-03   8   6   8   2
  0.1433583474186912E-02   8   6   8   3
  0.9578559329891418E-03   8   6   8   4
 -0.7972482794406828E-03   8   6   8   5
  0.1821506095919865E-01   8   6   8   6
  0.3831024478829855E-16   8   7   1   1
  0.7896038896519596E-16   8   7   2   1
  0.9646111107661328E-16   8   7   2   2
  0.1209336186256329E-16   8   7   3   1
  0.3377638213591849E-16   8   7   3   2
  0.1264490352722675E-15   8   7   3   3
 -0.4324164336591170E-16   8   7   4   1
 -0.8628934447545085E-16   8   7   4   2
 -0.5116200950388701E-16   8   7   4   3
  0.2275543439653094E-15   8   7   4   4
 -0.2257941077994586E-16   8   7   5   1
 -0.2509739341464105E-16   8   7   5   2
  0.2944288446698812E-16   8   7   5   3
 -0.1033682167785520E-17   8   7   5   4
  0.4513295230201426E-16   8   7   5   5
 -0.9649527852333515E-17   8   7   6   1
 -0.5310563707152062E-17   8   7   6   2
 -0.1108288411156743E-16   8   7   6   3
 -0.3407295653575312E-17   8   7   6   4
  0.2622657014150662E-16   8   7   6   5
  0.3858252356839993E-16   8   7   6   6
 -0.5378823817469030E-16   8   7   7   1
 -0.1311697101860333E-16   8   7   7   2
  0.5408538148352649E-16   8   7   7   3
 -0.5330010319022770E-16   8   7   7   4
  0.3498519064022185E-16   8   7   7   5
 -0.1239565499654460E-16   8   7   7   6
  0.2185484486486807E-15   8   7   7   7
  0.2566712274454373E-01   8   7   8   1
 -0.4545561174485520E-02   8   7   8   2
 -0.5798310101876284E-02   8   7   8   3
  0.7479634431427554E-02   8   7   8   4
  0.5796532009512597E-02   8   7   8   5
  0.5283601440223169E-04   8   7   8   6
  0.1164060313458001E-01   8   7   8   7
  0.8729592071883996E+00   8   8   1   1
 -0.5275474715797435E-01   8   8   2   1
  0.7590899881237743E+00   8   8   2   2
 -0.9713651774996912E-01   8   8   3   1
 -0.9130703400224804E-01   8   8   3   2
  0.3688243727110497E+00   8   8   3   3
  0.6483189203095178E-01   8   8   4   1
  0.1145868022786134E+00   8   8   4   2
 -0.1085869928700580E+00   8   8   4   3
  0.5008612980620205E+00   8   8   4   4
  0.5352763264020616E-01   8   8   5   1
 -0.1466707907830386E+00   8   8   5   2
  0.2669694781143317E-01   8   8   5   3
 -0.3050824383074824E-01   8   8   5   4
  0.5997813936240158E+00   8   8   5   5
 -0.1289658452390736E+00   8   8   6   1
  0.3490700145971193E-01   8   8   6   2
  0.9118172587813611E-01   8   8   6   3
  0.1452525038872932E-01   8   8   6   4
 -0.3644499810268065E-01   8   8   6   5
  0.7058437059613986E+00   8   8   6   6
  0.5864328478055150E-01   8   8   7   1
  0.4728092974138653E-01   8   8   7   2
 -0.6514999304465879E-01   8   8   7   3
  0.1523514246556298E+00   8   8   7   4
 -0.5996090216944050E-01   8   8   7   5
 -0.2328563777805215E-01   8   8   7   6
  0.6057699528706443E+00   8   8   7   7
  0.5295502648717782E-16   8   8   8   1
  0.1561068769786648E-16   8   8   8   2
 -0.5280140919851767E-16   8   8   8   3
  0.1356866537276124E-15   8   8   8   4
 -0.5310670492904240E-16   8   8   8   5
  0.1117827955036726E-16   8   8   8   6
 -0.4555396446056661E-16   8   8   8   7
  0.9848570277322488E+00   8   8   8   8
  0.8776789941843785E-02   9   1   1   1
  0.1809644948185855E-01   9   1   2   1
  0.4027226447468470E-01   9   1   2   2
 -0.6016303108658410E-02   9   1   3   1
 -0.1831018847665961E-01   9   1   3   2
  0.5651686844185102E-02   9   1   3   3
 -0.3358137223619863E-03   9   1   4   1
  0.2402926302636131E-01   9   1   4   2
 -0.5570903680375767E-02   9   1   4   3
  0.3658888327418693E-02   9   1   4   4
 -0.2338172921163034E-01   9   1   5   1
 -0.1074858480371531E-01   9   1   5   2
  0.7892676749970471E-02   9   1   5   3
 -0.9755900157096105E-02   9   1   5   4
  0.2046049372632224E-01   9   1   5   5
 -0.1619787376406917E-01   9   1   6   1
 -0.8296283199349956E-02   9   1   6   2
  0.6061631666346946E-02   9   1   6   3
 -0.5338358369688061E-02   9   1   6   4
  0.5811215291277486E-02   9   1   6   5
  0.2856125942366773E-02   9   1   6   6
 -0.1652343698919299E-01   9   1   7   1
  0.1114900010989798E-01   9   1   7   2
 -0.2134456475465356E-02   9   1   7   3
  0.9337920095374323E-02   9   1   7   4
 -0.8092117630378216E-02   9   1   7   5
 -0.8742617271528812E-03   9   1   7   6
  0.1710874370391288E-01   9   1   7   7
 -0.9761126979183425E-17   9   1   8   1
  0.1495333983965776E-16   9   1   8   2
 -0.2846028735013034E-17   9   1   8   3
  0.8768782688786382E-17   9   1   8   4
 -0.6201708879141390E-17   9   1   8   5
  0.2908804132182479E-17   9   1   8   6
  0.3805126170635008E-16   9   1   8   7
 -0.4788742406150491E-01   9   1   8   8
  0.6756691985376898E-01   9   1   9   1
  0.4910866052703264E-01   9   2   1   1
  0.8208302124134907E-01   9   2   2   1
 -0.1933721277927676E-01   9   2   2   2
 -0.3685167147293626E-01   9   2   3   1
 -0.8083710752946074E-02   9   2   3   2
  0.1830968449820598E-01   9   2   3   3
  0.4875831105897718E-01   9   2   4   1
 -0.6914730305722941E-02   9   2   4   2
 -0.8022235054639044E-02   9   2   4   3
  0.4707923481888655E-03   9   2   4   4
 -0.1790028045244397E-01   9   2   5   1
 -0.2188153721083069E-01   9   2   5   2
  0.1948850580630051E-01   9   2   5   3
 -0.9999637029288702E-02   9   2   5   4
 -0.2296843356174391E-01   9   2   5   5
 -0.1848685943286424E-01   9   2   6   1
 -0.3911666213665121E-01   9   2   6   2
  0.2001326715743716E-01   9   2   6   3
 -0.2766020584383714E-01   9   2   6   4
  0.4014085360190943E-01   9   2   6   5
  0.2499291143134201E-01   9   2   6   6
  0.2824609431851216E-01   9   2   7   1
 -0.2213792979870018E-01   9   2   7   2
 -0.4673560474170956E-02   9   2   7   3
  0.2150349521595192E-02   9   2   7   4
  0.4451877985847064E-02   9   2   7   5