 &FCI NORB= 15,NELEC=  8,MS2= 0,
  ORBSYM=1,1,1,1,1,1,1,1,2,2,2,3,3,3,4,
  ISYM=1,
 /
  0.8806002785036970E+00   1   1   1   1
  0.6728228543416113E-02   2   1   1   1
  0.1624450175431855E+00   2   1   2   1
  0.7887740336692172E+00   2   2   1   1
 -0.3630360869650232E-01   2   2   2   1
  0.7915692855139029E+00   2   2   2   2
 -0.1067556338769992E+00   3   1   1   1
 -0.2811939320211625E-01   3   1   2   1
 -0.6532919704257284E-01   3   1   2   2
  0.3499620554013549E-01   3   1   3   1
 -0.9720300065659965E-01   3   2   1   1
  0.2074652937589624E-01   3   2   2   1
 -0.8183127020324853E-01   3   2   2   2
  0.2559757161244624E-01   3   2   3   1
  0.4156364405056479E-01   3   2   3   2
  0.3965210640395569E+00   3   3   1   1
  0.4800993360134888E-01   3   3   2   1
  0.3886020652570492E+00   3   3   2   2
 -0.1401612395590070E-01   3   3   3   1
  0.1360580689651161E-01   3   3   3   2
  0.3665473600173600E+00   3   3   3   3
 -0.6197003871682712E-01   4   1   1   1
 -0.1656993613019102E-01   4   1   2   1
 -0.3741024605371324E-03   4   1   2   2
  0.3211290038892149E-01   4   1   3   1
  0.2334083109242713E-01   4   1   3   2
  0.1921042379166216E-02   4   1   3   3
  0.5360994422522440E-01   4   1   4   1
 -0.8375075255514909E-01   4   2   1   1
  0.9078866715896816E-01   4   2   2   1
 -0.6908515823190113E-01   4   2   2   2
  0.2162361135038842E-01   4   2   3   1
  0.5753720523589975E-01   4   2   3   2
  0.3362087322814935E-01   4   2   3   3
  0.4333938667497012E-01   4   2   4   1
  0.1344882686246982E+00   4   2   4   2
  0.1266357216838492E+00   4   3   1   1
  0.1941409100497945E-01   4   3   2   1
  0.1241858914741493E+00   4   3   2   2
 -0.1732599061491185E-01   4   3   3   1
 -0.9411126473673537E-02   4   3   3   2
  0.4434364368939500E-01   4   3   3   3
  0.3603057077421315E-02   4   3   4   1
  0.1323018117843407E-01   4   3   4   2
  0.4721074045774717E-01   4   3   4   3
  0.5931889537594741E+00   4   4   1   1
  0.9595186555948043E-01   4   4   2   1
  0.6051137143766635E+00   4   4   2   2
 -0.3203118102123673E-01   4   4   3   1
  0.5672970858209558E-02   4   4   3   2
  0.4172688352312822E+00   4   4   3   3
  0.4443256455853672E-01   4   4   4   1
  0.1127566536832943E+00   4   4   4   2
  0.1262422378140028E+00   4   4   4   3
  0.7073381805093332E+00   4   4   4   4
  0.2257384198989639E-01   5   1   1   1
 -0.4401243498769859E-01   5   1   2   1
  0.3499837224323066E-01   5   1   2   2
  0.9688706862995921E-02   5   1   3   1
  0.5537798531582113E-02   5   1   3   2
  0.3945520864458368E-02   5   1   3   3
  0.1282102052507992E-01   5   1   4   1
 -0.9638212968064809E-02   5   1   4   2
 -0.1371602569698538E-02   5   1   4   3
  0.7769175903933858E-02   5   1   4   4
  0.4106035447304625E-01   5   1   5   1
 -0.1914397085497541E+00   5   2   1   1
  0.1685252205666937E-01   5   2   2   1
 -0.1761588196881833E+00   5   2   2   2
  0.4045962641920299E-01   5   2   3   1
  0.3803828156883779E-01   5   2   3   2
 -0.3728130467247013E-01   5   2   3   3
  0.2199510172522826E-01   5   2   4   1
  0.5280502546081957E-01   5   2   4   2
 -0.3558430243585683E-01   5   2   4   3
 -0.8461831475750210E-01   5   2   4   4
 -0.3234910494737366E-01   5   2   5   1
  0.1364628543356160E+00   5   2   5   2
  0.6552413494694499E-01   5   3   1   1
  0.2784205480332757E-01   5   3   2   1
  0.5098175717612862E-01   5   3   2   2
 -0.1775228032777906E-01   5   3   3   1
 -0.5463070880826440E-02   5   3   3   2
  0.2822915305530768E-01   5   3   3   3
 -0.1235963476465267E-01   5   3   4   1
 -0.4665831855523994E-03   5   3   4   2
  0.1325897944259783E-01   5   3   4   3
  0.4681023959790676E-01   5   3   4   4
  0.3734011448829653E-02   5   3   5   1
 -0.4161797384853323E-01   5   3   5   2
  0.2352678617225321E-01   5   3   5   3
  0.9036723616813608E-01   5   4   1   1
  0.1599788917651244E-02   5   4   2   1
  0.7918307702402118E-01   5   4   2   2
 -0.2172733087955570E-01   5   4   3   1
 -0.1817553374710440E-01   5   4   3   2
  0.1992056543321313E-01   5   4   3   3
 -0.1548132499750451E-01   5   4   4   1
 -0.2576963954861139E-01   5   4   4   2
  0.1710433609246142E-01   5   4   4   3
  0.3556031287313183E-01   5   4   4   4
  0.1141048757080220E-01   5   4   5   1
 -0.6504666208712766E-01   5   4   5   2
  0.2327446778213749E-01   5   4   5   3
  0.3498699103383202E-01   5   4   5   4
  0.6726677766027812E+00   5   5   1   1
 -0.9513253150602249E-01   5   5   2   1
  0.6791439855163274E+00   5   5   2   2
 -0.4875017239575796E-01   5   5   3   1
 -0.9341167137493502E-01   5   5   3   2
  0.3217530856003284E+00   5   5   3   3
 -0.1706565461799708E-01   5   5   4   1
 -0.1250320453460430E+00   5   5   4   2
  0.8910610306078570E-01   5   5   4   3
  0.4475511423578861E+00   5   5   4   4
  0.2040536711582241E-01   5   5   5   1
 -0.1268379630162642E+00   5   5   5   2
  0.1728871870197911E-01   5   5   5   3
  0.5490235446992975E-01   5   5   5   4
  0.6923711812390946E+00   5   5   5   5
 -0.1636511945675304E+00   6   1   1   1
  0.6784142753489660E-02   6   1   2   1
 -0.1361734654815387E+00   6   1   2   2
  0.4402004308754505E-01   6   1   3   1
  0.4006920754169586E-01   6   1   3   2
 -0.2713379685364165E-01   6   1   3   3
  0.3030287768129536E-01   6   1   4   1
  0.5379269534787409E-01   6   1   4   2
 -0.3527485091381130E-01   6   1   4   3
 -0.5748924837407551E-01   6   1   4   4
 -0.3988523998730953E-02   6   1   5   1
  0.9851219253170790E-01   6   1   5   2
 -0.2852844808045649E-01   6   1   5   3
 -0.4743089934787656E-01   6   1   5   4
 -0.1181211798308481E+00   6   1   5   5
  0.1070951185750705E+00   6   1   6   1
  0.4693855355686300E-02   6   2   1   1
 -0.3626139472522913E-01   6   2   2   1
  0.2514439990215176E-01   6   2   2   2
  0.1348895923242849E-01   6   2   3   1
  0.5437522511648583E-02   6   2   3   2
 -0.4102320502039985E-02   6   2   3   3
  0.1911173834741003E-01   6   2   4   1
 -0.3961086169523689E-02   6   2   4   2
 -0.4306547908608981E-02   6   2   4   3
  0.3528381430047701E-02   6   2   4   4
  0.3451673496855887E-01   6   2   5   1
 -0.1330346617927718E-01   6   2   5   2
 -0.1699987780416631E-02   6   2   5   3
  0.2591717749508244E-02   6   2   5   4
  0.1568935614068343E-01   6   2   5   5
  0.9452646601925133E-02   6   2   6   1
  0.3532959013344974E-01   6   2   6   2
  0.1144292620938678E+00   6   3   1   1
  0.8384629413194639E-02   6   3   2   1
  0.8508070912862256E-01   6   3   2   2
 -0.2787157006275952E-01   6   3   3   1
 -0.3019787016885361E-01   6   3   3   2
  0.5150331565645534E-02   6   3   3   3
 -0.2595852205138894E-01   6   3   4   1
 -0.2954419288470506E-01   6   3   4   2
  0.1859280877056440E-01   6   3   4   3
  0.3705347632029230E-01   6   3   4   4
 -0.8319341458391805E-02   6   3   5   1
 -0.3224115050131969E-01   6   3   5   2
  0.1316666664524308E-01   6   3   5   3
  0.1799642296669430E-01   6   3   5   4
  0.8216282512144156E-01   6   3   5   5
 -0.3580072186816469E-01   6   3   6   1
 -0.9011086935912190E-02   6   3   6   2
  0.3695188043368418E-01   6   3   6   3
  0.4248009599261786E-01   6   4   1   1
  0.2712066420356093E-01   6   4   2   1
  0.2180619381084356E-01   6   4   2   2
 -0.2183897605393948E-01   6   4   3   1
 -0.1417773538735018E-01   6   4   3   2
  0.7232615352996887E-02   6   4   3   3
 -0.1837116351305331E-01   6   4   4   1
 -0.1015559954586239E-01   6   4   4   2
  0.8699467265483879E-02   6   4   4   3
  0.9371627091022816E-02   6   4   4   4
 -0.1572108939384756E-01   6   4   5   1
 -0.1923939511545138E-01   6   4   5   2
  0.1167466817873872E-01   6   4   5   3
  0.1374139061321467E-01   6   4   5   4
  0.1696784509205913E-01   6   4   5   5
 -0.3473282090290357E-01   6   4   6   1
 -0.1633409510566851E-01   6   4   6   2
  0.1584674314581890E-01   6   4   6   3
  0.2517055088807293E-01   6   4   6   4
  0.1150537427957721E-01   6   5   1   1
  0.8491389930058299E-01   6   5   2   1
 -0.1994723076844882E-01   6   5   2   2
 -0.1939325605346381E-01   6   5   3   1
  0.7487552657323177E-02   6   5   3   2
  0.2688583303150195E-01   6   5   3   3
 -0.2015409724141908E-01   6   5   4   1
  0.3418330513280664E-01   6   5   4   2
  0.9050600277887795E-02   6   5   4   3
  0.3897185667243942E-01   6   5   4   4
 -0.2545073399753274E-01   6   5   5   1
  0.2941855798404412E-02   6   5   5   2
  0.1987575878929914E-01   6   5   5   3
  0.5474366122725010E-02   6   5   5   4
 -0.4918237586318593E-01   6   5   5   5
 -0.3269360755328098E-02   6   5   6   1
 -0.2342058562045878E-01   6   5   6   2
  0.9755226098677558E-02   6   5   6   3
  0.1833992268347114E-01   6   5   6   4
  0.5421420870621377E-01   6   5   6   5
  0.7224241685842193E+00   6   6   1   1
  0.1981162829747418E-01   6   6   2   1
  0.6478798079432454E+00   6   6   2   2
 -0.7641168438671483E-01   6   6   3   1
 -0.6459356697850985E-01   6   6   3   2
  0.3790255477025347E+00   6   6   3   3
 -0.5378956544762229E-01   6   6   4   1
 -0.5549548475414762E-01   6   6   4   2
  0.9443745473777410E-01   6   6   4   3
  0.5197944334359231E+00   6   6   4   4
  0.1414102702035822E-01   6   6   5   1
 -0.1362095586914885E+00   6   6   5   2
  0.5419461672377404E-01   6   6   5   3
  0.6814284233684448E-01   6   6   5   4
  0.5674374202475586E+00   6   6   5   5
 -0.1071668771825277E+00   6   6   6   1
 -0.7347176640254416E-04   6   6   6   2
  0.8945164338817113E-01   6   6   6   3
  0.2630434118886160E-01   6   6   6   4
  0.2237953200239290E-01   6   6   6   5
  0.6352811901907355E+00   6   6   6   6
  0.1663650957793693E-16   7   1   1   1
 -0.1216402501749806E-17   7   1   2   1
  0.1779036829175028E-16   7   1   2   2
 -0.4307443079393904E-17   7   1   3   1
 -0.5779423407183247E-17   7   1   3   2
  0.2708218650597454E-17   7   1   3   3
 -0.2071004765817479E-17   7   1   4   1
 -0.8449404263256606E-17   7   1   4   2
  0.4407420247993516E-17   7   1   4   3
  0.6862105492080858E-17   7   1   4   4
 -0.2567873253890190E-18   7   1   5   1
 -0.1218140711239525E-16   7   1   5   2
  0.3302760021941803E-17   7   1   5   3
  0.6245583022323496E-17   7   1   5   4
  0.1687059012044866E-16   7   1   5   5
 -0.2443811778442219E-16   7   1   6   1
  0.2022307824531373E-17   7   1   6   2
  0.6156367608400548E-17   7   1   6   3
  0.6803562924366043E-17   7   1   6   4
 -0.2915404164579574E-17   7   1   6   5
  0.1361938271479987E-16   7   1   6   6
  0.8304177225250103E-01   7   1   7   1
  0.2524170296250322E-17   7   2   1   1
  0.7786595441565862E-17   7   2   2   1
 -0.3560636869473686E-17   7   2   2   2
 -0.2999321017312571E-17   7   2   3   1
  0.5958971971030971E-19   7   2   3   2
  0.1820732443476404E-17   7   2   3   3
 -0.3969359932963053E-17   7   2   4   1
  0.3152565685684529E-17   7   2   4   2
  0.9739964823880892E-18   7   2   4   3
  0.2018501338865843E-17   7   2   4   4
 -0.4424259491772796E-17   7   2   5   1
  0.1441111524776404E-17   7   2   5   2
  0.9711488553862116E-18   7   2   5   3
 -0.2840115109614121E-18   7   2   5   4
 -0.5070281731586986E-17   7   2   5   5
  0.1645003444334668E-17   7   2   6   1
 -0.7877237085278724E-17   7   2   6   2
  0.1726229810537747E-17   7   2   6   3
  0.2763496589248225E-17   7   2   6   4
  0.6078544083186178E-17   7   2   6   5
  0.1707435150730017E-17   7   2   6   6
 -0.1972560892665116E-01   7   2   7   1
  0.2053108348984584E-01   7   2   7   2
 -0.1149744471795353E-16   7   3   1   1
 -0.2507145415881587E-17   7   3   2   1
 -0.8095798679431234E-17   7   3   2   2
  0.3204779734290393E-17   7   3   3   1
  0.3109652481250478E-17   7   3   3   2
 -0.8155912022181281E-18   7   3   3   3
  0.3209143178154994E-17   7   3   4   1
  0.2822119570025969E-17   7   3   4   2
 -0.1765937036762982E-17   7   3   4   3
 -0.3830097352449513E-17   7   3   4   4
  0.1272424691401810E-17   7   3   5   1
  0.3522548970534462E-17   7   3   5   2
 -0.1874142175669800E-17   7   3   5   3
 -0.2167175953922946E-17   7   3   5   4
 -0.7306589820203740E-17   7   3   5   5
  0.5870133247707141E-17   7   3   6   1
  0.1367391016506459E-17   7   3   6   2
 -0.4686345383625741E-17   7   3   6   3
 -0.2782612859471565E-17   7   3   6   4
 -0.1669508283298459E-17   7   3   6   5
 -0.1036188292607560E-16   7   3   6   6
 -0.1565808946219519E-01   7   3   7   1
 -0.9506380338058489E-03   7   3   7   2
  0.4602892751725179E-02   7   3   7   3
  0.4537498749117913E-17   7   4   1   1
 -0.4973260582119965E-17   7   4   2   1
  0.7352521057252157E-17   7   4   2   2
  0.2332610857691262E-17   7   4   3   1
  0.1096487681051081E-17   7   4   3   2
  0.4344184861275429E-17   7   4   3   3
  0.2859897369871916E-17   7   4   4   1
  0.8038217289743868E-18   7   4   4   2
  0.3919137167106607E-18   7   4   4   3
  0.7078685427418507E-17   7   4   4   4
  0.2698216701385124E-17   7   4   5   1
  0.7703429836731479E-18   7   4   5   2
 -0.1234588853213314E-17   7   4   5   3
 -0.1237440896052026E-17   7   4   5   4
  0.6953031072928228E-17   7   4   5   5
  0.5918219108863329E-17   7   4   6   1
  0.2689364020857202E-17   7   4   6   2
 -0.2096260530295815E-17   7   4   6   3
 -0.4404883493639672E-17   7   4   6   4
 -0.2734657305589723E-17   7   4   6   5
  0.4240476654396281E-17   7   4   6   6
 -0.2214265711983356E-01   7   4   7   1
 -0.1632869385572389E-02   7   4   7   2
  0.6313226690563294E-02   7   4   7   3
  0.9767285877169452E-02   7   4   7   4
 -0.1243962263843364E-16   7   5   1   1
 -0.9691216221762399E-17   7   5   2   1
 -0.7255246935407476E-17   7   5   2   2
  0.2925876845387809E-17   7   5   3   1
 -0.1252932007163859E-18   7   5   3   2
 -0.9565190352834602E-17   7   5   3   3
  0.3012962778647408E-17   7   5   4   1
 -0.3802916046102422E-17   7   5   4   2
 -0.2156826710431522E-17   7   5   4   3
 -0.1276527136610889E-16   7   5   4   4
  0.3736527155444350E-17   7   5   5   1
 -0.1756703264744398E-17   7   5   5   2
 -0.1733822753683073E-17   7   5   5   3
  0.2734046454269398E-18   7   5   5   4
 -0.4089482216684942E-17   7   5   5   5
 -0.1820088730665177E-17   7   5   6   1
  0.4383703975567029E-17   7   5   6   2
 -0.2145312717199137E-17   7   5   6   3
 -0.2056008423754740E-17   7   5   6   4
 -0.7274898765659730E-17   7   5   6   5
 -0.1130647107048135E-16   7   5   6   6
  0.1335739523512510E-01   7   5   7   1
 -0.7686832467593227E-02   7   5   7   2
 -0.1330841360645689E-02   7   5   7   3
 -0.1372338277759730E-02   7   5   7   4
  0.6787663971700531E-02   7   5   7   5
 -0.2058678176430437E-15   7   6   1   1
  0.5467288255067503E-17   7   6   2   1
 -0.1813395681197312E-15   7   6   2   2
  0.2235198871674268E-16   7   6   3   1
  0.2057642766351388E-16   7   6   3   2
 -0.9601186276953033E-16   7   6   3   3
  0.1625948996338612E-16   7   6   4   1
  0.2120768286276145E-16   7   6   4   2
 -0.2647714986093677E-16   7   6   4   3
 -0.1352544397118311E-15   7   6   4   4
 -0.8154108577426410E-17   7   6   5   1
  0.4096066190657870E-16   7   6   5   2
 -0.1333659390456685E-16   7   6   5   3
 -0.1907395894735348E-16   7   6   5   4
 -0.1590137283052419E-15   7   6   5   5
  0.3285398135749798E-16   7   6   6   1
 -0.2607603223333158E-17   7   6   6   2
 -0.2566363328098602E-16   7   6   6   3
 -0.6354602697898976E-17   7   6   6   4
  0.2136670704827649E-18   7   6   6   5
 -0.1777470290095974E-15   7   6   6   6
 -0.4849118512418611E-02   7   6   7   1
  0.1541237538208654E-02   7   6   7   2
  0.2602766847122288E-02   7   6   7   3
  0.2449621361548090E-03   7   6   7   4
 -0.2975617914069648E-02   7   6   7   5
  0.1745479732458027E-01   7   6   7   6
  0.8729597741190618E+00   7   7   1   1
 -0.5489329499074073E-01   7   7   2   1
  0.7537012747189851E+00   7   7   2   2
 -0.9691529990280433E-01   7   7   3   1
 -0.9288551157487829E-01   7   7   3   2
  0.3724063382160507E+00   7   7   3   3
 -0.7407888540405255E-01   7   7   4   1
 -0.1036914036567295E+00   7   7   4   2
  0.1095626954621174E+00   7   7   4   3
  0.5333052574723888E+00   7   7   4   4
  0.4216219231477294E-01   7   7   5   1
 -0.1700685267038118E+00   7   7   5   2
  0.4676793671243774E-01   7   7   5   3
  0.7496925310204072E-01   7   7   5   4
  0.6637932078303858E+00   7   7   5   5
 -0.1373699389072811E+00   7   7   6   1
  0.1558789135865285E-01   7   7   6   2
  0.1069025353345259E+00   7   7   6   3
  0.2342863041995735E-01   7   7   6   4
 -0.1829028313508252E-01   7   7   6   5
  0.7102956650600172E+00   7   7   6   6
  0.1786911797708419E-16   7   7   7   1
  0.8142872418618714E-18   7   7   7   2
 -0.1168746137132010E-16   7   7   7   3
  0.5345944346508162E-17   7   7   7   4
 -0.9032276933149216E-17   7   7   7   5
 -0.2230975446290361E-15   7   7   7   6
  0.9848570277322524E+00   7   7   7   7
  0.8639609428427194E-02   8   1   1   1
  0.2629418024873694E-01   8   1   2   1
  0.5002904129776613E-01   8   1   2   2
 -0.3502117557687163E-02   8   1   3   1
 -0.1604175233774066E-01   8   1   3   2
  0.7470159493973092E-02   8   1   3   3
  0.1644332420492779E-01   8   1   4   1
 -0.8571469808230568E-02   8   1   4   2
  0.6379613396712676E-02   8   1   4   3
  0.2380887113339498E-01   8   1   4   4
 -0.1532802624880609E-01   8   1   5   1
 -0.1303817075939612E-01   8   1   5   2
  0.9325445763523378E-02   8   1   5   3
  0.8343794353088657E-02   8   1   5   4
  0.2404240381682006E-01   8   1   5   5
 -0.7728290093095264E-02   8   1   6   1
 -0.3670508866852387E-02   8   1   6   2
  0.4383360990895291E-02   8   1   6   3
  0.6928341312129979E-02   8   1   6   4
  0.1147009999641430E-01   8   1   6   5
  0.1914647351160921E-02   8   1   6   6
  0.3132841894917556E-17   8   1   7   1
 -0.2027790590018933E-17   8   1   7   2
 -0.4396957960348020E-18   8   1   7   3
 -0.1457338618685429E-18   8   1   7   4
 -0.4752704489785114E-18   8   1   7   5
  0.6997783699679151E-17   8   1   7   6
 -0.5747609987723148E-01   8   1   7   7
  0.8066609723816902E-01   8   1   8   1
  0.4680092933036069E-01   8   2   1   1
  0.1040559627004998E+00   8   2   2   1
 -0.2375435566432607E-01   8   2   2   2
 -0.3739455841754301E-01   8   2   3   1
 -0.3751422483101285E-02   8   2   3   2
  0.1710109975782717E-01   8   2   3   3
 -0.4094469576462847E-01   8   2   4   1
  0.3567205542178033E-01   8   2   4   2
  0.2997896648684068E-02   8   2   4   3
  0.1843592710204608E-01   8   2   4   4
 -0.3264778462412801E-01   8   2   5   1
  0.1669695826714682E-02   8   2   5   2
  0.1889231303200527E-01   8   2   5   3
  0.4787260887382754E-02   8   2   5   4
 -0.4490852376223956E-01   8   2   5   5
 -0.8236493710473199E-02   8   2   6   1
 -0.3281586540518223E-01   8   2   6   2
  0.2267307568460063E-01   8   2   6   3
  0.2698259967702154E-01   8   2   6   4
  0.5527067604336570E-01   8   2   6   5
  0.4166666385508737E-01   8   2   6   6
 -0.3114429110445019E-17   8   2   7   1
  0.8737308901298638E-17   8   2   7   2
 -0.3311421898857368E-17   8   2   7   3
 -0.4400244966816612E-17   8   2   7   4
 -0.7766795371311958E-17   8   2   7   5
 -0.8539591669201205E-17   8   2   7   6
  0.3235005831660181E-01   8   2   7   7
 -0.4569980674938148E-02   8   2   8   1
  0.1206379441998904E+00   8   2   8   2
 -0.3566230233871643E-02   8   3   1   1
 -0.4860651929448680E-01   8   3   2   1
 -0.2429057634377623E-02   8   3   2   2
  0.5963163547172031E-02   8   3   3   1
 -0.7689433120627677E-02   8   3   3   2
 -0.2189220307469514E-01   8   3   3   3
 -0.3101410023953730E-02   8   3   4   1
 -0.3292014383388823E-01   8   3   4   2
 -0.1255675740267807E-01   8   3   4   3
 -0.4418422067936485E-01   8   3   4   4
  0.1502324743841521E-01   8   3   5   1
 -0.2180930280687787E-02   8   3   5   2
 -0.7525539504150892E-02   8   3   5   3
 -0.9190408475170490E-03   8   3   5   4
  0.1944395695437960E-01   8   3   5   5
  0.8975261431847341E-03   8   3   6   1
  0.1368075178957500E-01   8   3   6   2
  0.8422957426864539E-03   8   3   6   3
 -0.7074186840304454E-02   8   3   6   4
 -0.2312105895756628E-01   8   3   6   5
 -0.5282552512636145E-02   8   3   6   6
  0.3946659903013234E-18   8   3   7   1
 -0.2578591676747735E-17   8   3   7   2
  0.1418383368752702E-18   8   3   7   3
  0.9810541712656062E-18   8   3   7   4
  0.2711817736154201E-17   8   3   7   5
 -0.2549541005928520E-17   8   3   7   6
  0.2256388227207933E-01   8   3   7   7
 -0.1655993136898651E-01   8   3   8   1
 -0.3124432420660914E-01   8   3   8   2
  0.2146326721470720E-01   8   3   8   3
  0.7340505482461643E-01   8   4   1   1
 -0.7180736542096816E-01   8   4   2   1
  0.7225281440648268E-01   8   4   2   2
 -0.7930075751443120E-02   8   4   3   1
 -0.3394546157454864E-01   8   4   3   2
 -0.2024083473048057E-01   8   4   3   3
 -0.1212643112238223E-01   8   4   4   1
 -0.7505528557624519E-01   8   4   4   2
 -0.5757768968720621E-02   8   4   4   3
 -0.4641411969739409E-01   8   4   4   4
  0.1937907676289612E-01   8   4   5   1
 -0.3062957756595581E-01   8   4   5   2
 -0.4138893203736982E-02   8   4   5   3
  0.1227503351894882E-01   8   4   5   4
  0.8994942295276413E-01   8   4   5   5
 -0.2350306407042743E-01   8   4   6   1
  0.1850695519983023E-01   8   4   6   2
  0.1507341286901501E-01   8   4   6   3
 -0.1125243667411797E-02   8   4   6   4
 -0.3488947652091158E-01   8   4   6   5
  0.4318756402885115E-01   8   4   6   6
  0.4112543204162921E-17   8   4   7   1
 -0.4059952053251206E-17   8   4   7   2
 -0.1122606133653816E-17   8   4   7   3
  0.9909836789167132E-18   8   4   7   4
  0.3569929355443974E-17   8   4   7   5
 -0.1896245625696279E-16   8   4   7   6
  0.9899881413163863E-01   8   4   7   7
  0.9649549126002424E-03   8   4   8   1
 -0.3808532022276571E-01   8   4   8   2
  0.2833149826947961E-01   8   4   8   3
  0.6339513056574396E-01   8   4   8   4
 -0.4159857995380469E-01   8   5   1   1
 -0.4177354938168738E-01   8   5   2   1
 -0.9756595444661936E-02   8   5   2   2
  0.1992224529683902E-01   8   5   3   1
  0.6149354384249982E-02   8   5   3   2
 -0.1366556328791643E-01   8   5   3   3
  0.1924935361140013E-01   8   5   4   1
 -0.9824476481160652E-02   8   5   4   2
 -0.8686162442821128E-02   8   5   4   3
 -0.2224278927971881E-01   8   5   4   4
  0.2152074803155065E-01   8   5   5   1
 -0.2059350933415987E-02   8   5   5   2
 -0.7944610353458986E-02   8   5   5   3
 -0.7752386231033286E-03   8   5   5   4
  0.4518934469652061E-02   8   5   5   5
  0.1358794616614891E-01   8   5   6   1
  0.2190376171385323E-01   8   5   6   2
 -0.1422358185252151E-01   8   5   6   3
 -0.1683752795005505E-01   8   5   6   4
 -0.2529623077824137E-01   8   5   6   5
 -0.3062354585245121E-01   8   5   6   6
  0.1481610345478331E-18   8   5   7   1
 -0.4584379405531304E-17   8   5   7   2
  0.1756965750230484E-17   8   5   7   3
  0.2127773333697599E-17   8   5   7   4
  0.4140250090887553E-17   8   5   7   5
  0.7940073809840193E-17   8   5   7   6
 -0.3544232891101603E-01   8   5   7   7
 -0.6560936645067569E-05   8   5   8   1
 -0.4776417080744844E-01   8   5   8   2
  0.1369994891841369E-01   8   5   8   3
  0.1366596227355032E-01   8   5   8   4
  0.3113308307522807E-01   8   5   8   5
 -0.2710617281372307E-01   8   6   1   1
  0.3824944124851156E-02   8   6   2   1
 -0.3647784698936086E-01   8   6   2   2
  0.7256057905749090E-02   8   6   3   1
  0.1666862829330025E-01   8   6   3   2
  0.1851645516908042E-02   8   6   3   3
  0.2962045786775240E-02   8   6   4   1
  0.2206334324169396E-01   8   6   4   2
 -0.3939545573009191E-02   8   6   4   3
 -0.1523287728949387E-02   8   6   4   4
  0.6119184140498094E-02   8   6   5   1
  0.1916089265003669E-01   8   6   5   2
 -0.5274186648070270E-02   8   6   5   3
 -0.1024860980166033E-01   8   6   5   4
 -0.3116359368353667E-01   8   6   5   5
  0.1152529756163165E-01   8   6   6   1
  0.6047231164526828E-02   8   6   6   2
 -0.8249785822432673E-02   8   6   6   3
 -0.3306438837582614E-02   8   6   6   4
  0.2261174420449159E-03   8   6   6   5
 -0.1724483106050078E-01   8   6   6   6
  0.5602073035604886E-17   8   6   7   1
 -0.2076938355129842E-17   8   6   7   2
 -0.6728867312735133E-18   8   6   7   3
 -0.2258105578230143E-17   8   6   7   4
  0.1291284147124923E-17   8   6   7   5
  0.3734677326223937E-17   8   6   7   6
 -0.1465555364840585E-01   8   6   7   7
 -0.2755776588215672E-01   8   6   8   1
  0.3026273621221861E-02   8   6   8   2
  0.3023211196931590E-02   8   6   8   3
 -0.9976850545244074E-02   8   6   8   4
  0.1446122738659635E-03   8   6   8   5
  0.2247294521490675E-01   8   6   8   6
  0.8858837538670401E-17   8   7   1   1
 -0.5159835053394648E-17   8   7   2   1
  0.1106661254673438E-16   8   7   2   2
 -0.8278584143011695E-18   8   7   3   1
 -0.2966150674310215E-17   8   7   3   2
  0.6446136414993712E-18   8   7   3   3
  0.4072458337000499E-18   8   7   4   1
 -0.4825153935621597E-17   8   7   4   2
  0.9688475196760003E-18   8   7   4   3
  0.1731609711945409E-17   8   7   4   4
  0.9416254668270345E-18   8   7   5   1
 -0.4275482999127437E-17   8   7   5   2
  0.3985393840520231E-18   8   7   5   3
  0.1574924491754053E-17   8   7   5   4
  0.9550663205508418E-17   8   7   5   5
  0.5016740360948872E-17   8   7   6   1
 -0.1917869689655950E-17   8   7   6   2
 -0.1559912146426300E-18   8   7   6   3
 -0.2099510310416812E-17   8   7   6   4
 -0.2100334044702365E-18   8   7   6   5
  0.3643974481479089E-17   8   7   6   6
 -0.5789360109437840E-01   8   7   7   1
  0.1668264413752895E-01   8   7   7   2
  0.1076311716178884E-01   8   7   7   3
  0.1692312568120981E-01   8   7   7   4
 -0.1090994529528233E-01   8   7   7   5
  0.2964412988561257E-02   8   7   7   6
  0.2440187050114597E-17   8   7   7   7
  0.4663961061821806E-17   8   7   8   1
 -0.2504127171025401E-17   8   7   8   2
  0.3885108786816290E-18   8   7   8   3
  0.3307331572812404E-17   8   7   8   4
  0.3386512627454358E-18   8   7   8   5
 -0.1073979323766715E-16   8   7   8   6
  0.5390996493735598E-01   8   7   8   7
  0.8597571320469644E+00   8   8   1   1
 -0.3470605400111147E-01   8   8   2   1
  0.8240970900424112E+00   8   8   2   2
 -0.8797031654431121E-01   8   8   3   1
 -0.1020961621972449E+00   8   8   3   2
  0.3886837613672531E+00   8   8   3   3
 -0.2757637031046369E-01   8   8   4   1
 -0.9727320194017508E-01   8   8   4   2
  0.1264686431933201E+00   8   8   4   3
  0.5962030853390463E+00   8   8   4   4
  0.2880001203214613E-01   8   8   5   1
 -0.1878923207314809E+00   8   8   5   2
  0.5487697456017712E-01   8   8   5   3
  0.8237048898672816E-01   8   8   5   4
  0.6948888974822288E+00   8   8   5   5
 -0.1541093932747353E+00   8   8   6   1
  0.1688615537147675E-01   8   8   6   2
  0.1007292314158676E+00   8   8   6   3
  0.2728617366535202E-01   8   8   6   4
 -0.1421165444659844E-01   8   8   6   5
  0.6897745117779475E+00   8   8   6   6
  0.2041812991822095E-16   8   8   7   1
 -0.2442292945794520E-17   8   8   7   2
 -0.9845325333382399E-17   8   8   7   3
  0.6755180921212749E-17   8   8   7   4
 -0.8735300276752155E-17   8   8   7   5
 -0.1987639361686890E-15   8   8   7   6
  0.8469395695919423E+00   8   8   7   7
  0.5041916190493628E-01   8   8   8   1
 -0.7839105825429141E-02   8   8   8   2
  0.2150088840971259E-02   8   8   8   3
  0.9853268257878750E-01   8   8   8   4
 -0.2633772268622587E-01   8   8   8   5
 -0.4731533199231247E-01   8   8   8   6
  0.1184839834739624E-16   8   8   8   7
  0.9249904595447314E+00   8   8   8   8
  0.8463431907086320E+00   9   9   1   1
 -0.4484519296160407E-01   9   9   2   1
  0.7473891475572716E+00   9   9   2   2
 -0.9463066968261594E-01   9   9   3   1
 -0.9395445933244023E-01   9   9   3   2
  0.3723312056283055E+00   9   9   3   3
 -0.6854412120868857E-01   9   9   4   1
 -0.1061389901208374E+00   9   9   4   2
  0.1093011190509867E+00   9   9   4   3
  0.5309884083311959E+00   9   9   4   4
  0.3781163618397237E-01   9   9   5   1
 -0.1816889957252358E+00   9   9   5   2
  0.5252773787915824E-01   9   9   5   3
  0.8358896890939338E-01   9   9   5   4
  0.6701991986891230E+00   9   9   5   5
 -0.1524087762978192E+00   9   9   6   1
  0.1383942654928849E-01   9   9   6   2
  0.1090662365515483E+00   9   9   6   3
  0.3034844765112288E-01   9   9   6   4
 -0.1378304651343704E-01   9   9   6   5
  0.7024960046616024E+00   9   9   6   6
  0.5842264521240036E-01   9   9   7   1
 -0.1484527558128260E-01   9   9   7   2
 -0.1058266221815711E-01   9   9   7   3
 -0.1522505727866034E-01   9   9   7   4
  0.9726805874674707E-02   9   9   7   5
 -0.4157894516835365E-02   9   9   7   6
  0.8824996739054196E+00   9   9   7   7
 -0.3355986901923383E-01   9   9   8   1
  0.2549630604064347E-01   9   9   8   2
  0.1728011951693119E-01   9   9   8   3
  0.8962993917978701E-01   9   9   8   4
 -0.2989173971818650E-01   9   9   8   5
 -0.1415957777517518E-01   9   9   8   6
 -0.4029153294775471E-01   9   9   8   7
  0.8142827159378584E+00   9   9   8   8
  0.8962997654089346E+00   9   9   9   9
 -0.2272292236024434E+00  10   9   1   1
  0.2393474568499788E-01  10   9   2   1
 -0.1839567455502533E+00  10   9   2   2
  0.5145197414792513E-01  10   9   3   1
  0.4459433299268546E-01  10   9   3   2
 -0.3592070783494379E-01  10   9   3   3
  0.3536266533670866E-01  10   9   4   1
  0.6216517594803049E-01  10   9   4   2
 -0.4386056781210702E-01  10   9   4   3
 -0.8216470323336060E-01  10   9   4   4
 -0.2366403347925908E-01  10   9   5   1
  0.1211948557780336E+00  10   9   5   2
 -0.3281969415841461E-01  10   9   5   3
 -0.5605123707635441E-01  10   9   5   4
 -0.1560499930436786E+00  10   9   5   5
  0.1203993552523768E+00  10   9   6   1
 -0.5864439302749477E-02  10   9   6   2
 -0.4179058177700379E-01  10   9   6   3
 -0.3453986354237065E-01  10   9   6   4
  0.5988008814729315E-02  10   9   6   5
 -0.1515951344189814E+00  10   9   6   6
 -0.1741118483052004E-01  10   9   7   1
  0.4658258886791196E-02  10   9   7   2
  0.4774732370189104E-02  10   9   7   3
  0.3894437073711052E-02  10   9   7   4
 -0.5527646901076982E-02  10   9   7   5