 &FCI NORB=  2,NELEC=  4,MS2= 0,
  ORBSYM=1,1,
  DENSITY=2,
  ISYM=1,
 /
  0.1025903727942443E+01   1   1   1   1
  0.0000000000000000E+00   2   1   1   1
  0.0000000000000000E+00   2   1   2   1
  0.9999960000000006E-05   2   2   1   1
  0.0000000000000000E+00   2   2   2   1
  0.1025903727942443E+01   2   2   2   2
 -0.1943548536362463E+01   1   1   0   0
  0.0000000000000000E+00   2   1   0   0
 -0.1943548536362463E+01   2   2   0   0
  0.4000000000000000E-04   0   0   0   0
