 &FCI NORB=  4,NELEC=  2,MS2= 0,
  ORBSYM=1,1,5,5,
  ISYM=1,
  IUHF=1,
 /
  0.6523836080296290E+00   1   1   1   1
 -0.1529358985082908E+00   2   1   1   1
  0.8189564843557420E-01   2   1   2   1
  0.4494061679523580E+00   2   2   1   1
 -0.7283848530803627E-01   2   2   2   1
  0.3576296644122001E+00   2   2   2   2
  0.3881988960021735E+00   3   3   1   1
 -0.3467500458501455E-01   3   3   2   1
  0.3210142077157165E+00   3   3   2   2
  0.3369009069968130E+00   3   3   3   3
  0.1413565602731505E+00   4   3   1   1
 -0.5565935818895612E-01   4   3   2   1
  0.6886185461676508E-01   4   3   2   2
  0.4775306091194537E-01   4   3   3   3
  0.5843861619986269E-01   4   3   4   3
  0.6242938748534571E+00   4   4   1   1
 -0.1570800342959706E+00   4   4   2   1
  0.4353957037810949E+00   4   4   2   2
  0.3845290934021045E+00   4   4   3   3
  0.1453943376895525E+00   4   4   4   3
  0.6449071678798016E+00   4   4   4   4
  0.6012569682475886E-01   3   1   3   1
  0.2360765320234017E-01   3   2   3   1
  0.3800764765936390E-01   3   2   3   2
  0.7403694953404960E-01   4   1   3   1
 -0.4591415409936486E-02   4   1   3   2
  0.1379529897982656E+00   4   1   4   1
 -0.5476441934688146E-01   4   2   3   1
 -0.1085368464511219E-01   4   2   3   2
 -0.9132972068903307E-01   4   2   4   1
  0.7245589500505570E-01   4   2   4   2
  0.0000000000000000E+00   0   0   0   0
  0.6523836080296290E+00   1   1   1   1
 -0.1529358985082908E+00   2   1   1   1
  0.8189564843557420E-01   2   1   2   1
  0.4494061679523580E+00   2   2   1   1
 -0.7283848530803627E-01   2   2   2   1
  0.3576296644122001E+00   2   2   2   2
  0.3881988960021735E+00   3   3   1   1
 -0.3467500458501455E-01   3   3   2   1
  0.3210142077157165E+00   3   3   2   2
  0.3369009069968130E+00   3   3   3   3
  0.1413565602731505E+00   4   3   1   1
 -0.5565935818895612E-01   4   3   2   1
  0.6886185461676508E-01   4   3   2   2
  0.4775306091194537E-01   4   3   3   3
  0.5843861619986269E-01   4   3   4   3
  0.6242938748534571E+00   4   4   1   1
 -0.1570800342959706E+00   4   4   2   1
  0.4353957037810949E+00   4   4   2   2
  0.3845290934021045E+00   4   4   3   3
  0.1453943376895525E+00   4   4   4   3
  0.6449071678798016E+00   4   4   4   4
  0.6012569682475886E-01   3   1   3   1
  0.2360765320234017E-01   3   2   3   1
  0.3800764765936390E-01   3   2   3   2
  0.7403694953404960E-01   4   1   3   1
 -0.4591415409936486E-02   4   1   3   2
  0.1379529897982656E+00   4   1   4   1
 -0.5476441934688146E-01   4   2   3   1
 -0.1085368464511219E-01   4   2   3   2
 -0.9132972068903307E-01   4   2   4   1
  0.7245589500505570E-01   4   2   4   2
  0.0000000000000000E+00   0   0   0   0
  0.6523836080296290E+00   1   1   1   1
 -0.1529358985082905E+00   1   1   2   1
  0.4494061679523580E+00   1   1   2   2
  0.3881988960021734E+00   1   1   3   3
  0.1413565602731505E+00   1   1   4   3
  0.6242938748534568E+00   1   1   4   4
 -0.1529358985082908E+00   2   1   1   1
  0.8189564843557420E-01   2   1   2   1
 -0.7283848530803860E-01   2   1   2   2
 -0.3467500458501432E-01   2   1   3   3
 -0.5565935818895594E-01   2   1   4   3
 -0.1570800342959713E+00   2   1   4   4
  0.4494061679523580E+00   2   2   1   1
 -0.7283848530803627E-01   2   2   2   1
  0.3576296644122001E+00   2   2   2   2
  0.3210142077157158E+00   2   2   3   3
  0.6886185461676558E-01   2   2   4   3
  0.4353957037810958E+00   2   2   4   4
  0.3881988960021735E+00   3   3   1   1
 -0.3467500458501455E-01   3   3   2   1
  0.3210142077157165E+00   3   3   2   2
  0.3369009069968130E+00   3   3   3   3
  0.4775306091194526E-01   3   3   4   3
  0.3845290934021047E+00   3   3   4   4
  0.1413565602731505E+00   4   3   1   1
 -0.5565935818895612E-01   4   3   2   1
  0.6886185461676508E-01   4   3   2   2
  0.4775306091194537E-01   4   3   3   3
  0.5843861619986269E-01   4   3   4   3
  0.1453943376895522E+00   4   3   4   4
  0.6242938748534571E+00   4   4   1   1
 -0.1570800342959706E+00   4   4   2   1
  0.4353957037810949E+00   4   4   2   2
  0.3845290934021045E+00   4   4   3   3
  0.1453943376895525E+00   4   4   4   3
  0.6449071678798016E+00   4   4   4   4
  0.6012569682475886E-01   3   1   3   1
  0.2360765320234015E-01   3   1   3   2
  0.7403694953404966E-01   3   1   4   1
 -0.5476441934688143E-01   3   1   4   2
  0.2360765320234017E-01   3   2   3   1
  0.3800764765936390E-01   3   2   3   2
 -0.4591415409936486E-02   3   2   4   1
 -0.1085368464511228E-01   3   2   4   2
  0.7403694953404960E-01   4   1   3   1
 -0.4591415409936486E-02   4   1   3   2
  0.1379529897982656E+00   4   1   4   1
 -0.9132972068903307E-01   4   1   4   2
 -0.5476441934688146E-01   4   2   3   1
 -0.1085368464511219E-01   4   2   3   2
 -0.9132972068903307E-01   4   2   4   1
  0.7245589500505570E-01   4   2   4   2
  0.0000000000000000E+00   0   0   0   0
 -0.1245621192677996E+01   1   1   0   0
  0.1529358985082898E+00   2   1   0   0
 -0.3384129746438473E+00   2   2   0   0
 -0.5193500022718723E+00   3   3   0   0
 -0.2086761710122512E+00   4   3   0   0
 -0.7435938398215391E-01   4   4   0   0
  0.0000000000000000E+00   0   0   0   0
 -0.1245621192677996E+01   1   1   0   0
  0.1529358985082898E+00   2   1   0   0
 -0.3384129746438473E+00   2   2   0   0
 -0.5193500022718723E+00   3   3   0   0
 -0.2086761710122512E+00   4   3   0   0
 -0.7435938398215391E-01   4   4   0   0
  0.0000000000000000E+00   0   0   0   0
  0.7142857142857143E+00   0   0   0   0
