 &FCI NORB=  2,NELEC=  2,MS2= 0,
  ORBSYM=1,1,
  ISYM=1,
 /
  0.5661901887808983E+00   1   1   1   1
  0.4857225732735060E-16   2   1   1   1
  0.1401921481125681E+00   2   1   2   1
  0.5562775226378165E+00   2   2   1   1
 -0.3330669073875470E-15   2   2   2   1
  0.5858638518021787E+00   2   2   2   2
 -0.1185521057382049E+01   1   1   0   0
  0.2220446049250313E-15   2   1   0   0
 -0.5734408500550614E+00   2   2   0   0
  0.7142857142857143E+00   0   0   0   0
