 &FCI NORB=  3,NELEC=  2,MS2= 0,
  ORBSYM=1,1,1,
  ISYM=1,
  METHOD=IPT,
  MAXIT=  100,
  NSTATE=    1,
  MAXORDER=  3,
  EXPLICIT1=    0,
  PARALLEL_STRINGSET=    0,
  DENSITY=    2,
  SCS_OPPOSITE= 1.0000000000000    ,
  SCS_SAME= 1.0000000000000    ,
  JUNK=1,
 /
  0.1026864625361507E+01   1   1   1   1
  0.3267209552009728E-19   2   1   1   1
  0.1039653230578317E-38   2   1   2   1
  0.5000000000071484E-06   2   2   1   1
 -0.3574292399927005E-23   2   2   2   1
  0.1128378400000000E-03   2   2   2   2
 -0.3164468354447081E+00   3   1   1   1
 -0.1006849979232299E-19   3   1   2   1
 -0.4900341542697838E-10   3   1   2   2
  0.2275051584332961E+00   3   1   3   1
 -0.1006849979324624E-19   3   2   1   1
 -0.3203529842061444E-39   3   2   2   1
 -0.1559242641946652E-29   3   2   2   2
  0.7238611305891010E-20   3   2   3   1
  0.2303134311266005E-39   3   2   3   2
  0.8575924296278130E+00   3   3   1   1
  0.2728630277739830E-19   3   3   2   1
  0.5001901163043244E-06   3   3   2   2
 -0.2551952960425887E+00   3   3   3   1
 -0.8119638111747106E-20   3   3   3   2
  0.7654947267548939E+00   3   3   3   3
 -0.1941012551302123E+01   1   1   0   0
 -0.6175784481496286E-19   2   1   0   0
 -0.9849999999999997E-06   2   2   0   0
  0.3164468354502707E+00   3   1   0   0
  0.1006849979419767E-19   3   2   0   0
 -0.9023799659370102E-01   3   3   0   0
  0.0000000000000000E+00   0   0   0   0
