 &FCI NORB=  6,NELEC=  2,MS2= 0,
  ORBSYM=1,1,1,1,2,3,
  ISYM=1,
  METHOD=IPT,
  MAXIT=  100,
  NSTATE=    1,
  MAXORDER=  3,
  EXPLICIT1=    0,
  PARALLEL_STRINGSET=    0,
  DENSITY=    2,
  SCS_OPPOSITE= 1.0000000000000    ,
  SCS_SAME= 1.0000000000000    ,
  JUNK=1,
 /
  0.1026864625361507E+01   1   1   1   1
  0.3267209552009728E-19   2   1   1   1
  0.1039653230578317E-38   2   1   2   1
  0.5000000000071484E-06   2   2   1   1
 -0.3574292399927005E-23   2   2   2   1
  0.1128378400000000E-03   2   2   2   2
 -0.3164468354447081E+00   3   1   1   1
 -0.1006849979232299E-19   3   1   2   1
 -0.4900341542697838E-10   3   1   2   2
  0.2275051584332961E+00   3   1   3   1
 -0.1006849979324624E-19   3   2   1   1
 -0.3203529842061444E-39   3   2   2   1
 -0.1559242641946652E-29   3   2   2   2
  0.7238611305891010E-20   3   2   3   1
  0.2303134311266005E-39   3   2   3   2
  0.8575924296278130E+00   3   3   1   1
  0.2728630277739830E-19   3   3   2   1
  0.5001901163043244E-06   3   3   2   2
 -0.2551952960425887E+00   3   3   3   1
 -0.8119638111747106E-20   3   3   3   2
  0.7654947267548939E+00   3   3   3   3
  0.1351273925303412E-09   4   1   1   1
  0.4299777814957586E-29   4   1   2   1
  0.2015706315838297E-19   4   1   2   2
 -0.1724610765228593E-10   4   1   3   1
 -0.5487784285545837E-30   4   1   3   2
  0.8272448000600407E-10   4   1   3   3
  0.1831492364089987E+00   4   1   4   1
  0.4301401775370897E-29   4   2   1   1
  0.1368713575712061E-48   4   2   2   1
  0.3493933078879901E-36   4   2   2   2
 -0.5492064799958971E-30   4   2   3   1
 -0.1747598064647833E-49   4   2   3   2
  0.2633691119079722E-29   4   2   3   3
  0.5827323400078125E-20   4   2   4   1
  0.1854099895522667E-39   4   2   4   2
  0.4702596609157617E-10   4   3   1   1
  0.1496188654460178E-29   4   3   2   1
 -0.7736630562318561E-19   4   3   2   2
 -0.3560005792900440E-11   4   3   3   1
 -0.1132104104514565E-30   4   3   3   2
  0.3157027990342543E-10   4   3   3   3
 -0.2538575550867394E-01   4   3   4   1
 -0.8077074739715743E-21   4   3   4   2
  0.2852866161121962E-01   4   3   4   3
  0.9612619860404907E+00   4   4   1   1
  0.3058479336856479E-19   4   4   2   1
  0.5000000000645405E-06   4   4   2   2
 -0.2304847679152625E+00   4   4   3   1
 -0.7333414583817825E-20   4   4   3   2
  0.7749532517391438E+00   4   4   3   3
  0.1109572075903360E-09   4   4   4   1
  0.3532535973910054E-29   4   4   4   2
  0.9041229738551621E-10   4   4   4   3
  0.1040530899391914E+01   4   4   4   4
  0.9612619859164100E+00   5   5   1   1
  0.3058479336588957E-19   5   5   2   1
  0.4999599999999999E-06   5   5   2   2
 -0.2304847678855115E+00   5   5   3   1
 -0.7333414582871236E-20   5   5   3   2
  0.7749532516391131E+00   5   5   3   3
  0.9401344187803918E-10   5   5   4   1
  0.2993164331142763E-29   5   5   4   2
  0.6063511498184332E-10   5   5   4   3
  0.9131189524097310E+00   5   5   4   4
  0.1040530899123288E+01   5   5   5   5
  0.9612619859164100E+00   6   6   1   1
  0.3058479336588957E-19   6   6   2   1
  0.4999599999999999E-06   6   6   2   2
 -0.2304847678855115E+00   6   6   3   1
 -0.7333414582871236E-20   6   6   3   2
  0.7749532516391131E+00   6   6   3   3
  0.9401344187803918E-10   6   6   4   1
  0.2993164331142763E-29   6   6   4   2
  0.6063511498184332E-10   6   6   4   3
  0.9131189524097310E+00   6   6   4   4
  0.9131189522918646E+00   6   6   5   5
  0.1040530899123288E+01   6   6   6   6
  0.1831492363853576E+00   5   1   5   1
  0.5827323399325927E-20   5   2   5   1
  0.1854099895283338E-39   5   2   5   2
 -0.2538575550539712E-01   5   3   5   1
 -0.8077074738673146E-21   5   3   5   2
  0.2852866160753710E-01   5   3   5   3
  0.8471882848987302E-11   5   4   5   1
  0.2696858211555932E-30   5   4   5   2
  0.1488859119600099E-10   5   4   5   3
  0.6370597342393466E-01   5   4   5   4
  0.1831492363853576E+00   6   1   6   1
  0.5827323399325927E-20   6   2   6   1
  0.1854099895283338E-39   6   2   6   2
 -0.2538575550539712E-01   6   3   6   1
 -0.8077074738673146E-21   6   3   6   2
  0.2852866160753710E-01   6   3   6   3
  0.8471882848987302E-11   6   4   6   1
  0.2696858211555932E-30   6   4   6   2
  0.1488859119600099E-10   6   4   6   3
  0.6370597342393466E-01   6   4   6   4
  0.6370597341571141E-01   6   5   6   5
 -0.1941012551302123E+01   1   1   0   0
 -0.6175784481496286E-19   2   1   0   0
 -0.9849999999999997E-06   2   2   0   0
  0.3164468354502707E+00   3   1   0   0
  0.1006849979419767E-19   3   2   0   0
 -0.9023799659370102E-01   3   3   0   0
 -0.1351295989710467E-09   4   1   0   0
 -0.4297827454199619E-29   4   2   0   0
 -0.1112979486870021E-09   4   3   0   0
  0.7849972904413716E+00   4   4   0   0
  0.7849972904352338E+00   5   5   0   0
  0.7849972904352338E+00   6   6   0   0
  0.0000000000000000E+00   0   0   0   0
