 &FCI NORB=  3,NELEC=  2,MS2= 2,
  ORBSYM=1,1,1,
  ISYM=1,
 /
  0.1025903191844775E+01   1   1   1   1
 -0.2552101446814352E+00   2   1   1   1
  0.1167636226986664E+00   2   1   2   1
  0.5816064009102715E+00   2   2   1   1
 -0.7855144499904607E-01   2   2   2   1
  0.4359456782252602E+00   2   2   2   2
 -0.2051157255294812E+00   3   1   1   1
  0.1209432113680863E+00   3   1   2   1
 -0.6372616242331294E-01   3   1   2   2
  0.2193568515307282E+00   3   1   3   1
  0.2215686006535332E+00   3   2   1   1
 -0.9611570204830970E-01   3   2   2   1
  0.7715958530266082E-01   3   2   2   2
 -0.1271280411142024E+00   3   2   3   1
  0.9703894197311513E-01   3   2   3   2
  0.1090891502485733E+01   3   3   1   1
 -0.3013153636105685E+00   3   3   2   1
  0.6014965390877416E+00   3   3   2   2
 -0.3453525604150081E+00   3   3   3   1
  0.2985948351039132E+00   3   3   3   2
  0.1305977683145530E+01   3   3   3   3
 -0.1943528268314596E+01   1   1   0   0
  0.2552101498166703E+00   2   1   0   0
 -0.4098063806395018E+00   2   2   0   0
  0.2051157134838641E+00   3   1   0   0
 -0.3221939899389810E+00   3   2   0   0
  0.2646137051033656E+01   3   3   0   0
  0.0000000000000000E+00   0   0   0   0
