 &FCI NORB=  2,NELEC=  4,MS2= 0,
  ORBSYM=1,5,
  ISYM=1,
 /
  0.5134823124175996E+00   1   1   1   1
  0.5134823124175996E+00   2   2   1   1
  0.5134823124175996E+00   2   2   2   2
  0.5133823124175996E+00   2   1   2   1
 -0.1941212551038968E+01   1   1   0   0
 -0.1941212551038968E+01   2   2   0   0
  0.4000000000000000E-03   0   0   0   0
