 &FCI NORB=  4,NELEC=  6,MS2= 0,
  ORBSYM=1,1,1,1,
  ISYM=1,
  MAXIT=1,
  EXPLICIT1=1,
 /
  0.1038024277477348E+01   1   1   1   1
  0.0000000000000000E+00   2   1   1   1
  0.5141805176629583E-01   2   1   2   1
  0.9351881739447566E+00   2   2   1   1
  0.0000000000000000E+00   2   2   2   1
  0.1038024277477348E+01   2   2   2   2
  0.0000000000000000E+00   3   1   1   1
  0.0000000000000000E+00   3   1   2   1
  0.0000000000000000E+00   3   1   2   2
  0.5141805176629583E-01   3   1   3   1
  0.0000000000000000E+00   3   2   1   1
  0.0000000000000000E+00   3   2   2   1
  0.0000000000000000E+00   3   2   2   2
  0.0000000000000000E+00   3   2   3   1
  0.5141805176629583E-01   3   2   3   2
  0.9351881739447566E+00   3   3   1   1
  0.0000000000000000E+00   3   3   2   1
  0.9351881739447566E+00   3   3   2   2
  0.0000000000000000E+00   3   3   3   1
  0.0000000000000000E+00   3   3   3   2
  0.1038024277477348E+01   3   3   3   3
 -0.6722374792108992E-17   4   1   1   1
  0.0000000000000000E+00   4   1   2   1
 -0.7150566469286451E-17   4   1   2   2
  0.0000000000000000E+00   4   1   3   1
  0.0000000000000000E+00   4   1   3   2
 -0.7150566469286451E-17   4   1   3   3
  0.5944677153583279E-01   4   1   4   1
  0.0000000000000000E+00   4   2   1   1
  0.2140958385887299E-18   4   2   2   1
  0.0000000000000000E+00   4   2   2   2
  0.0000000000000000E+00   4   2   3   1
  0.0000000000000000E+00   4   2   3   2
  0.0000000000000000E+00   4   2   3   3
  0.0000000000000000E+00   4   2   4   1
  0.5944677153583279E-01   4   2   4   2
  0.0000000000000000E+00   4   3   1   1
  0.0000000000000000E+00   4   3   2   1
  0.0000000000000000E+00   4   3   2   2
  0.2140958385887307E-18   4   3   3   1
  0.0000000000000000E+00   4   3   3   2
  0.0000000000000000E+00   4   3   3   3
  0.0000000000000000E+00   4   3   4   1
  0.0000000000000000E+00   4   3   4   2
  0.5944677153583279E-01   4   3   4   3
  0.8091639730599773E+00   4   4   1   1
  0.0000000000000000E+00   4   4   2   1
  0.8091639730599773E+00   4   4   2   2
  0.0000000000000000E+00   4   4   3   1
  0.0000000000000000E+00   4   4   3   2
  0.8091639730599773E+00   4   4   3   3
 -0.1122250084021930E-16   4   4   4   1
  0.0000000000000000E+00   4   4   4   2
  0.0000000000000000E+00   4   4   4   3
  0.7113350987766793E+00   4   4   4   4
 -0.5520567475722458E+01   1   1   0   0
  0.0000000000000000E+00   2   1   0   0
 -0.5520567475722458E+01   2   2   0   0
  0.0000000000000000E+00   3   1   0   0
  0.0000000000000000E+00   3   2   0   0
 -0.5520567475722458E+01   3   3   0   0
  0.1510694895338276E-15   4   1   0   0
  0.0000000000000000E+00   4   2   0   0
  0.0000000000000000E+00   4   3   0   0
 -0.2523191178211405E+01   4   4   0   0
 -0.1094326840404598E+03   0   0   0   0
