 &FCI NORB= 15,NELEC=  8,MS2= 0,
  ORBSYM=1,1,1,1,1,1,1,1,2,2,2,3,3,3,4,
  ISYM=1,
 /
  0.8817777987758867E+00   1   1   1   1
  0.1024363543650515E-01   2   1   1   1
  0.1632297551234944E+00   2   1   2   1
  0.7918132664814602E+00   2   2   1   1
 -0.3738995422115803E-01   2   2   2   1
  0.7977770602722510E+00   2   2   2   2
 -0.1070615885530332E+00   3   1   1   1
 -0.2676147138196972E-01   3   1   2   1
 -0.6648570350650915E-01   3   1   2   2
  0.3425980885721322E-01   3   1   3   1
 -0.9230087463555982E-01   3   2   1   1
  0.1904734228046685E-01   3   2   2   1
 -0.7877470813727173E-01   3   2   2   2
  0.2483695438881669E-01   3   2   3   1
  0.3846239005966824E-01   3   2   3   2
  0.3943659091531757E+00   3   3   1   1
  0.4779904808382351E-01   3   3   2   1
  0.3850062825887707E+00   3   3   2   2
 -0.1309616560320352E-01   3   3   3   1
  0.1374708899854493E-01   3   3   3   2
  0.3643199131048996E+00   3   3   3   3
 -0.6382924240467036E-01   4   1   1   1
 -0.1496184316828122E-01   4   1   2   1
 -0.1543700762938851E-02   4   1   2   2
  0.3204944666794576E-01   4   1   3   1
  0.2321969259714730E-01   4   1   3   2
  0.2139176258133093E-02   4   1   3   3
  0.5580690879162571E-01   4   1   4   1
 -0.8123209112183702E-01   4   2   1   1
  0.9196699497686060E-01   4   2   2   1
 -0.7121623687402456E-01   4   2   2   2
  0.2174204171937604E-01   4   2   3   1
  0.5480488672955297E-01   4   2   3   2
  0.3364264277132957E-01   4   2   3   3
  0.4487356717283525E-01   4   2   4   1
  0.1349247471940001E+00   4   2   4   2
  0.1240370942904076E+00   4   3   1   1
  0.1938341341589037E-01   4   3   2   1
  0.1209515653465994E+00   4   3   2   2
 -0.1703440430088252E-01   4   3   3   1
 -0.8734392240602205E-02   4   3   3   2
  0.4235709175301886E-01   4   3   3   3
  0.3201683688647219E-02   4   3   4   1
  0.1238593427228445E-01   4   3   4   2
  0.4495903702149104E-01   4   3   4   3
  0.6032013230637154E+00   4   4   1   1
  0.9758504256044777E-01   4   4   2   1
  0.6112954606507738E+00   4   4   2   2
 -0.3332963429994043E-01   4   4   3   1
  0.4032591501992033E-02   4   4   3   2
  0.4152042292052888E+00   4   4   3   3
  0.4511213601258440E-01   4   4   4   1
  0.1114990995159601E+00   4   4   4   2
  0.1237480243638472E+00   4   4   4   3
  0.7144482756657945E+00   4   4   4   4
  0.1915157667181932E-01   5   1   1   1
 -0.4391253885149215E-01   5   1   2   1
  0.3311297792369419E-01   5   1   2   2
  0.9912688522378667E-02   5   1   3   1
  0.6555657172122812E-02   5   1   3   2
  0.3755789590836859E-02   5   1   3   3
  0.1293195855157431E-01   5   1   4   1
 -0.8777665606662318E-02   5   1   4   2
 -0.1910304634588224E-02   5   1   4   3
  0.6715358607957092E-02   5   1   4   4
  0.4060511277940251E-01   5   1   5   1
 -0.1923568858280315E+00   5   2   1   1
  0.1652747743822173E-01   5   2   2   1
 -0.1784278428167543E+00   5   2   2   2
  0.4104722765081395E-01   5   2   3   1
  0.3657033660337641E-01   5   2   3   2
 -0.3592284172915711E-01   5   2   3   3
  0.2339846995417522E-01   5   2   4   1
  0.5320179739816004E-01   5   2   4   2
 -0.3464994399750113E-01   5   2   4   3
 -0.8620456267420394E-01   5   2   4   4
 -0.3060782467116045E-01   5   2   5   1
  0.1374090851299790E+00   5   2   5   2
  0.6478307536634310E-01   5   3   1   1
  0.2881667541954190E-01   5   3   2   1
  0.4984705898349250E-01   5   3   2   2
 -0.1709417832468198E-01   5   3   3   1
 -0.4521825096373472E-02   5   3   3   2
  0.2827139384469457E-01   5   3   3   3
 -0.1206720502336516E-01   5   3   4   1
  0.1099790455442930E-02   5   3   4   2
  0.1301196094721012E-01   5   3   4   3
  0.4813729618419059E-01   5   3   4   4
  0.2913615998334812E-02   5   3   5   1
 -0.4038008592597837E-01   5   3   5   2
  0.2302788983362412E-01   5   3   5   3
  0.9046035782072281E-01   5   4   1   1
  0.3218732023603248E-02   5   4   2   1
  0.7971823888073332E-01   5   4   2   2
 -0.2174175773817121E-01   5   4   3   1
 -0.1657976824623331E-01   5   4   3   2
  0.2051914881452558E-01   5   4   3   3
 -0.1577921770995240E-01   5   4   4   1
 -0.2413064080672700E-01   5   4   4   2
  0.1731021528551177E-01   5   4   4   3
  0.3870585988632243E-01   5   4   4   4
  0.1065853342426916E-01   5   4   5   1
 -0.6575849348080576E-01   5   4   5   2
  0.2317683949899920E-01   5   4   5   3
  0.3571715957042558E-01   5   4   5   4
  0.6710636991813165E+00   5   5   1   1
 -0.9314342589994265E-01   5   5   2   1
  0.6817693645198508E+00   5   5   2   2
 -0.4989301918901101E-01   5   5   3   1
 -0.8878596153294371E-01   5   5   3   2
  0.3199236043086859E+00   5   5   3   3
 -0.1889577775986012E-01   5   5   4   1
 -0.1248661977012668E+00   5   5   4   2
  0.8689681931769055E-01   5   5   4   3
  0.4535210180492895E+00   5   5   4   4
  0.1793491469542358E-01   5   5   5   1
 -0.1270665410537938E+00   5   5   5   2
  0.1616651008706374E-01   5   5   5   3
  0.5327502085761066E-01   5   5   5   4
  0.6900704064686893E+00   5   5   5   5
 -0.1635752007604419E+00   6   1   1   1
  0.6354591131088153E-02   6   1   2   1
 -0.1375699655337456E+00   6   1   2   2
  0.4409963505203211E-01   6   1   3   1
  0.3841760476917683E-01   6   1   3   2
 -0.2585863580702814E-01   6   1   3   3
  0.3118959221921611E-01   6   1   4   1
  0.5370912641575247E-01   6   1   4   2
 -0.3468441265254389E-01   6   1   4   3
 -0.5933187087258075E-01   6   1   4   4
 -0.2511890507219443E-02   6   1   5   1
  0.9896083237049881E-01   6   1   5   2
 -0.2753215232239108E-01   6   1   5   3
 -0.4764125974300008E-01   6   1   5   4
 -0.1177834794970685E+00   6   1   5   5
  0.1069145790313607E+00   6   1   6   1
  0.5710529882751332E-02   6   2   1   1
 -0.3730052301711314E-01   6   2   2   1
  0.2737065037385441E-01   6   2   2   2
  0.1282450499520756E-01   6   2   3   1
  0.5349176727862609E-02   6   2   3   2
 -0.3532874936774997E-02   6   2   3   3
  0.1903592156229227E-01   6   2   4   1
 -0.4949060122963637E-02   6   2   4   2
 -0.3932018184890203E-02   6   2   4   3
  0.4113010855402456E-02   6   2   4   4
  0.3494278018639378E-01   6   2   5   1
 -0.1491515752076054E-01   6   2   5   2
 -0.1608541660957325E-02   6   2   5   3
  0.3174432659840565E-02   6   2   5   4
  0.1705844013389602E-01   6   2   5   5
  0.7929252949984433E-02   6   2   6   1
  0.3575892587312343E-01   6   2   6   2
  0.1142854545930328E+00   6   3   1   1
  0.8102364350486533E-02   6   3   2   1
  0.8593724879827282E-01   6   3   2   2
 -0.2722790540395308E-01   6   3   3   1
 -0.2868096029361467E-01   6   3   3   2
  0.5018091914668498E-02   6   3   3   3
 -0.2589186173204984E-01   6   3   4   1
 -0.2873221112823087E-01   6   3   4   2
  0.1816469053491897E-01   6   3   4   3
  0.3957758251463386E-01   6   3   4   4
 -0.8468307647312028E-02   6   3   5   1
 -0.3224562689185810E-01   6   3   5   2
  0.1258324469440888E-01   6   3   5   3
  0.1747346274706465E-01   6   3   5   4
  0.8215512448186682E-01   6   3   5   5
 -0.3508221963908911E-01   6   3   6   1
 -0.8437550919607240E-02   6   3   6   2
  0.3626174133320455E-01   6   3   6   3
  0.4265672887004853E-01   6   4   1   1
  0.2757497435306285E-01   6   4   2   1
  0.2162989228491798E-01   6   4   2   2
 -0.2145504966328860E-01   6   4   3   1
 -0.1350026713808129E-01   6   4   3   2
  0.7104957362984708E-02   6   4   3   3
 -0.1834788283342592E-01   6   4   4   1
 -0.9323572092338065E-02   6   4   4   2
  0.9079290389000240E-02   6   4   4   3
  0.1099036898159828E-01   6   4   4   4
 -0.1626373768723432E-01   6   4   5   1
 -0.1911773089196422E-01   6   4   5   2
  0.1141002388120479E-01   6   4   5   3
  0.1370851701578692E-01   6   4   5   4
  0.1690992591844385E-01   6   4   5   5
 -0.3472028935113454E-01   6   4   6   1
 -0.1630564055371325E-01   6   4   6   2
  0.1521934490008995E-01   6   4   6   3
  0.2519632517994184E-01   6   4   6   4
  0.1239929544563822E-01   6   5   1   1
  0.8560692313081004E-01   6   5   2   1
 -0.2207392897208799E-01   6   5   2   2
 -0.1855177733458224E-01   6   5   3   1
  0.7030532096029579E-02   6   5   3   2
  0.2654810340843364E-01   6   5   3   3
 -0.1998286643242266E-01   6   5   4   1
  0.3507394605818423E-01   6   5   4   2
  0.8746061368542224E-02   6   5   4   3
  0.3881726068503646E-01   6   5   4   4
 -0.2554553053560942E-01   6   5   5   1
  0.3467226646262991E-02   6   5   5   2
  0.2020566311066699E-01   6   5   5   3
  0.6049424718772348E-02   6   5   5   4
 -0.4957337012055883E-01   6   5   5   5
 -0.2753411651938553E-02   6   5   6   1
 -0.2397731202965966E-01   6   5   6   2
  0.9363813700134869E-02   6   5   6   3
  0.1843717368115719E-01   6   5   6   4
  0.5487180884428267E-01   6   5   6   5
  0.7219691135914733E+00   6   6   1   1
  0.1846332457239636E-01   6   6   2   1
  0.6494720469800221E+00   6   6   2   2
 -0.7548580514170988E-01   6   6   3   1
 -0.6146334959289537E-01   6   6   3   2
  0.3761984567826097E+00   6   6   3   3
 -0.5476879276762114E-01   6   6   4   1
 -0.5556489132329982E-01   6   6   4   2
  0.9163274966831636E-01   6   6   4   3
  0.5239395271762358E+00   6   6   4   4
  0.1292033128319003E-01   6   6   5   1
 -0.1367328306090462E+00   6   6   5   2
  0.5299508667248296E-01   6   6   5   3
  0.6812468599044619E-01   6   6   5   4
  0.5676177801120791E+00   6   6   5   5
 -0.1065572190293738E+00   6   6   6   1
  0.1456686717361155E-02   6   6   6   2
  0.8896490128740264E-01   6   6   6   3
  0.2554966753670285E-01   6   6   6   4
  0.2101367200624277E-01   6   6   6   5
  0.6333574292921963E+00   6   6   6   6
  0.9638094289379685E-16   7   1   1   1
  0.2473754701292374E-17   7   1   2   1
  0.8887316344414967E-16   7   1   2   2
 -0.2774454308136640E-16   7   1   3   1
 -0.2288610941829285E-16   7   1   3   2
  0.1911402443201207E-16   7   1   3   3
 -0.1867591258891428E-16   7   1   4   1
 -0.2698523461826919E-16   7   1   4   2
  0.2431376296351633E-16   7   1   4   3
  0.4709367079510988E-16   7   1   4   4
 -0.3476724050805631E-18   7   1   5   1
 -0.6271398101727806E-16   7   1   5   2
  0.1841294216356637E-16   7   1   5   3
  0.2958495313389798E-16   7   1   5   4
  0.7235310168194072E-16   7   1   5   5
 -0.4602571568283123E-16   7   1   6   1
 -0.1246465476095640E-16   7   1   6   2
  0.1804572829678807E-16   7   1   6   3
  0.1775546050079109E-16   7   1   6   4
  0.9086005215734761E-17   7   1   6   5
  0.6433781431082387E-16   7   1   6   6
  0.8262899049391188E-01   7   1   7   1
 -0.1151377386164265E-17   7   2   1   1
  0.3408500404043970E-16   7   2   2   1
 -0.1515768123076892E-16   7   2   2   2
 -0.8519241450031489E-17   7   2   3   1
 -0.8487394769402575E-18   7   2   3   2
  0.7832430346094166E-17   7   2   3   3
 -0.8040729255470048E-17   7   2   4   1
  0.1222350801278843E-16   7   2   4   2
  0.5946929131670251E-17   7   2   4   3
  0.1324391120734294E-16   7   2   4   4
 -0.2349028368843636E-16   7   2   5   1
  0.7771902277949945E-17   7   2   5   2
  0.3822698301309630E-17   7   2   5   3
 -0.2167985782075980E-18   7   2   5   4
 -0.1524540954917501E-16   7   2   5   5
 -0.1158467276110438E-16   7   2   6   1
 -0.1799077484380806E-16   7   2   6   2
  0.4471486917030314E-17   7   2   6   3
  0.1120558005730119E-16   7   2   6   4
  0.1781490995307092E-16   7   2   6   5
  0.9638135304401956E-18   7   2   6   6
 -0.2014378130033975E-01   7   2   7   1
  0.2092310958096887E-01   7   2   7   2
 -0.7461220822524398E-16   7   3   1   1
 -0.4927382583339719E-17   7   3   2   1
 -0.5516040813085875E-16   7   3   2   2
  0.1908840364948908E-16   7   3   3   1
  0.2022575867877312E-16   7   3   3   2
 -0.1794921549326625E-17   7   3   3   3
  0.1943601411999860E-16   7   3   4   1
  0.2183152258839701E-16   7   3   4   2
 -0.1047653916061243E-16   7   3   4   3
 -0.2122116026069136E-16   7   3   4   4
  0.5525785196696770E-17   7   3   5   1
  0.2318672335117338E-16   7   3   5   2
 -0.9005653241101922E-17   7   3   5   3
 -0.1243212748031716E-16   7   3   5   4
 -0.5332782044441004E-16   7   3   5   5
  0.2035280106658243E-16   7   3   6   1
  0.5610247244485049E-17   7   3   6   2
 -0.2359930233034625E-16   7   3   6   3
 -0.9335836407298611E-17   7   3   6   4
 -0.7088299964102286E-17   7   3   6   5
 -0.5746076585175961E-16   7   3   6   6
 -0.1557059336841139E-01   7   3   7   1
 -0.6736609680917179E-03   7   3   7   2
  0.4461191632913444E-02   7   3   7   3
 -0.1884363753955844E-16   7   4   1   1
 -0.7323055021038760E-17   7   4   2   1
 -0.9397229574505005E-18   7   4   2   2
  0.1668084174324441E-16   7   4   3   1
  0.1436269042145261E-16   7   4   3   2
  0.1236204658966065E-16   7   4   3   3
  0.2052885809220173E-16   7   4   4   1
  0.2225329995778022E-16   7   4   4   2
 -0.1282327016748061E-17   7   4   4   3
  0.2669001575397534E-16   7   4   4   4
  0.9315517352059623E-17   7   4   5   1
  0.1683080523466977E-16   7   4   5   2
 -0.6837472228131368E-17   7   4   5   3
 -0.1105039602326007E-16   7   4   5   4
 -0.6569816051777383E-17   7   4   5   5
  0.2108693279250359E-16   7   4   6   1
  0.1034066512126293E-16   7   4   6   2
 -0.1094508947003075E-16   7   4   6   3
 -0.1504708798245967E-16   7   4   6   4
 -0.9265157588536944E-17   7   4   6   5
 -0.8136951363732917E-17   7   4   6   6
 -0.2292027418341053E-01   7   4   7   1
 -0.1328320406076002E-02   7   4   7   2
  0.6353818832702002E-02   7   4   7   3
  0.1027250282196719E-01   7   4   7   4
 -0.2130590664766672E-16   7   5   1   1
 -0.5332919721102024E-16   7   5   2   1
 -0.1758732634988547E-19   7   5   2   2
  0.1270939345214968E-16   7   5   3   1
 -0.1981941506913476E-17   7   5   3   2
 -0.2374934587325435E-16   7   5   3   3
  0.1228396124515478E-16   7   5   4   1
 -0.1904992155247062E-16   7   5   4   2
 -0.7491442268243080E-17   7   5   4   3
 -0.3455320736290052E-16   7   5   4   4
  0.1749207604923782E-16   7   5   5   1
 -0.7890637680317274E-18   7   5   5   2
 -0.1279391254839704E-16   7   5   5   3
 -0.4686854015187680E-17   7   5   5   4
  0.1492412048228753E-16   7   5   5   5
  0.8214332259725057E-17   7   5   6   1
  0.1394109335962151E-16   7   5   6   2
 -0.8193669626568569E-17   7   5   6   3
 -0.1290312884572103E-16   7   5   6   4
 -0.3238595431309357E-16   7   5   6   5
 -0.2590303050785479E-16   7   5   6   6
  0.1331562519748502E-01   7   5   7   1
 -0.7790188646374370E-02   7   5   7   2
 -0.1374566375020220E-02   7   5   7   3
 -0.1516753587955988E-02   7   5   7   4
  0.6745988306054536E-02   7   5   7   5
 -0.2384339838012539E-15   7   6   1   1
 -0.2975663811912503E-16   7   6   2   1
 -0.2205184331391126E-15   7   6   2   2
  0.2451641015811543E-16   7   6   3   1
  0.1662023394576100E-16   7   6   3   2
 -0.1469094113794964E-15   7   6   3   3
  0.1669636619327916E-16   7   6   4   1
  0.8075051453532217E-17   7   6   4   2
 -0.3214970309904055E-16   7   6   4   3
 -0.1984060788087403E-15   7   6   4   4
  0.3494141784315511E-17   7   6   5   1
  0.4487993193692027E-16   7   6   5   2
 -0.2345007391056821E-16   7   6   5   3
 -0.2533740509677189E-16   7   6   5   4
 -0.1914468606512985E-15   7   6   5   5
  0.3293194041893170E-16   7   6   6   1
  0.5002856374934772E-17   7   6   6   2
 -0.2948591395003650E-16   7   6   6   3
 -0.1194038474364943E-16   7   6   6   4
 -0.2129474499632692E-16   7   6   6   5
 -0.2147643028787028E-15   7   6   6   6
 -0.4580539622113643E-02   7   6   7   1
  0.1546709830250839E-02   7   6   7   2
  0.2579967696582244E-02   7   6   7   3
  0.1623170920991083E-03   7   6   7   4
 -0.2844774045308599E-02   7   6   7   5
  0.1752363769130159E-01   7   6   7   6
  0.8723415138766668E+00   7   7   1   1
 -0.5461422714435175E-01   7   7   2   1
  0.7573273706557060E+00   7   7   2   2
 -0.9698843739192683E-01   7   7   3   1
 -0.8804698597017491E-01   7   7   3   2
  0.3700210387830407E+00   7   7   3   3
 -0.7672984266547964E-01   7   7   4   1
 -0.1027663465541660E+00   7   7   4   2
  0.1069741598229514E+00   7   7   4   3
  0.5407806839490011E+00   7   7   4   4
  0.3987081379192500E-01   7   7   5   1
 -0.1710525228471327E+00   7   7   5   2
  0.4554344943502574E-01   7   7   5   3
  0.7434323717312386E-01   7   7   5   4
  0.6628904232123344E+00   7   7   5   5
 -0.1369621868529991E+00   7   7   6   1
  0.1706902194943805E-01   7   7   6   2
  0.1068553083520717E+00   7   7   6   3
  0.2295932759531838E-01   7   7   6   4
 -0.1849626246332731E-01   7   7   6   5
  0.7101263797063976E+00   7   7   6   6
  0.8669152523233281E-16   7   7   7   1
 -0.2141778816578348E-16   7   7   7   2
 -0.7465549666696312E-16   7   7   7   3
 -0.1563503646542016E-16   7   7   7   4
  0.6574050255221783E-17   7   7   7   5
 -0.2222383915865910E-15   7   7   7   6
  0.9848570277322497E+00   7   7   7   7
  0.9595068062376214E-02   8   1   1   1
  0.2729998495718018E-01   8   1   2   1
  0.4960999624407626E-01   8   1   2   2
 -0.3863607992272672E-02   8   1   3   1
 -0.1573135041719322E-01   8   1   3   2
  0.7002314559668929E-02   8   1   3   3
  0.1662798047757300E-01   8   1   4   1
 -0.8617468500136130E-02   8   1   4   2
  0.5863242367890421E-02   8   1   4   3
  0.2391798921722996E-01   8   1   4   4
 -0.1585805807959324E-01   8   1   5   1
 -0.1314824279662203E-01   8   1   5   2
  0.9293669996094205E-02   8   1   5   3
  0.8288138117812677E-02   8   1   5   4
  0.2390030330555112E-01   8   1   5   5
 -0.8038947205658283E-02   8   1   6   1
 -0.4007106807347258E-02   8   1   6   2
  0.4477751108088051E-02   8   1   6   3
  0.6827680112304821E-02   8   1   6   4
  0.1160587290207002E-01   8   1   6   5
  0.2121225325756775E-02   8   1   6   6
  0.1297692500239570E-16   8   1   7   1
  0.6233294177818873E-17   8   1   7   2
 -0.4272294074555716E-17   8   1   7   3
 -0.3065026126305450E-17   8   1   7   4
 -0.9566000542272258E-17   8   1   7   5
 -0.1707432112652179E-16   8   1   7   6
 -0.5687931331895066E-01   8   1   7   7
  0.8012780366383115E-01   8   1   8   1
  0.4868637751876192E-01   8   2   1   1
  0.1034975785163324E+00   8   2   2   1
 -0.2487053603860842E-01   8   2   2   2
 -0.3627873479599407E-01   8   2   3   1
 -0.4348621012599932E-02   8   2   3   2
  0.1679699388834607E-01   8   2   3   3
 -0.4101275701948531E-01   8   2   4   1
  0.3630160377097315E-01   8   2   4   2
  0.3053409326715502E-02   8   2   4   3
  0.1871328929825816E-01   8   2   4   4
 -0.3271234343303641E-01   8   2   5   1
  0.1233675754341031E-02   8   2   5   2
  0.1901054490840441E-01   8   2   5   3
  0.5146493954822704E-02   8   2   5   4
 -0.4355262628394155E-01   8   2   5   5
 -0.8561877275123629E-02   8   2   6   1
 -0.3374775939780499E-01   8   2   6   2
  0.2223083257919450E-01   8   2   6   3
  0.2692984265162354E-01   8   2   6   4
  0.5563656158471581E-01   8   2   6   5
  0.4070741399338709E-01   8   2   6   6
  0.1019618532517283E-16   8   2   7   1
  0.2433644633096302E-16   8   2   7   2
 -0.1656436531067426E-16   8   2   7   3
 -0.1782630621379672E-16   8   2   7   4
 -0.3381732319465092E-16   8   2   7   5
 -0.1995538332042444E-16   8   2   7   6
  0.3326580913409359E-01   8   2   7   7
 -0.4440887948465326E-02   8   2   8   1
  0.1204940091738836E+00   8   2   8   2
 -0.4703410442161275E-02   8   3   1   1
 -0.4717237862405044E-01   8   3   2   1
 -0.2812712417643434E-02   8   3   2   2
  0.5332663645605393E-02   8   3   3   1
 -0.6914030496922283E-02   8   3   3   2
 -0.2125907350237306E-01   8   3   3   3
 -0.4007579283016621E-02   8   3   4   1
 -0.3210618003844800E-01   8   3   4   2
 -0.1234076778101018E-01   8   3   4   3
 -0.4376649202499616E-01   8   3   4   4
  0.1453982225213547E-01   8   3   5   1
 -0.1994896990908553E-02   8   3   5   2
 -0.7556315101337964E-02   8   3   5   3
 -0.1498293966813478E-02   8   3   5   4
  0.1764546216428169E-01   8   3   5   5
  0.1176234142581192E-02   8   3   6   1
  0.1341551579637246E-01   8   3   6   2
  0.1011244878206960E-02   8   3   6   3
 -0.7020019184196757E-02   8   3   6   4
 -0.2232327972387797E-01   8   3   6   5
 -0.4783165911459446E-02   8   3   6   6
 -0.4390317638939616E-17   8   3   7   1
 -0.1265198313491060E-16   8   3   7   2
 -0.1107083746763389E-17   8   3   7   3
  0.3322065312501234E-18   8   3   7   4
  0.1437454325906611E-16   8   3   7   5
  0.1004375195381287E-16   8   3   7   6
  0.2186524923146026E-01   8   3   7   7
 -0.1660166549574939E-01   8   3   8   1
 -0.2942960863738843E-01   8   3   8   2
  0.2045933612372366E-01   8   3   8   3
  0.7386882417678770E-01   8   4   1   1
 -0.7250019295367048E-01   8   4   2   1
  0.7496531659747054E-01   8   4   2   2
 -0.8963968534892003E-02   8   4   3   1
 -0.3279978059355888E-01   8   4   3   2
 -0.2031048626748914E-01   8   4   3   3
 -0.1367481132855822E-01   8   4   4   1
 -0.7618140371127972E-01   8   4   4   2
 -0.5586948419267990E-02   8   4   4   3
 -0.4571090176081858E-01   8   4   4   4
  0.1893124122192994E-01   8   4   5   1
 -0.3178286946173184E-01   8   4   5   2
 -0.4784758541488395E-02   8   4   5   3
  0.1143499373632969E-01   8   4   5   4
  0.9042898099872046E-01   8   4   5   5
 -0.2425128732999815E-01   8   4   6   1
  0.1895450111130140E-01   8   4   6   2
  0.1534633355806683E-01   8   4   6   3
 -0.1483567116408593E-02   8   4   6   4
 -0.3534412988030645E-01   8   4   6   5
  0.4487931627956030E-01   8   4   6   6
  0.1151407621302391E-16   8   4   7   1
 -0.1873309974411183E-16   8   4   7   2
 -0.1164317185926799E-16   8   4   7   3
 -0.8111573380151188E-17   8   4   7   4
  0.2138950005775885E-16   8   4   7   5
 -0.8416404428707472E-18   8   4   7   6
  0.1009799309212983E+00   8   4   7   7
  0.8986487210155963E-03   8   4   8   1
 -0.3768763853917551E-01   8   4   8   2
  0.2765615129463073E-01   8   4   8   3
  0.6503235585022098E-01   8   4   8   4
 -0.4335213196404477E-01   8   5   1   1
 -0.4239397727926542E-01   8   5   2   1
 -0.1055789897320194E-01   8   5   2   2
  0.1961885866665264E-01   8   5   3   1
  0.6052635335054041E-02   8   5   3   2
 -0.1407905729514473E-01   8   5   3   3
  0.1905896075713171E-01   8   5   4   1
 -0.1073719323398745E-01   8   5   4   2
 -0.9024443959022906E-02   8   5   4   3
 -0.2447854384111796E-01   8   5   4   4
  0.2147172594832044E-01   8   5   5   1
 -0.1150796206550639E-02   8   5   5   2
 -0.8517891858225508E-02   8   5   5   3
 -0.1355856012166718E-02   8   5   5   4
  0.4094597506124566E-02   8   5   5   5
  0.1393962471190887E-01   8   5   6   1
  0.2217641045694705E-01   8   5   6   2
 -0.1391083645116816E-01   8   5   6   3
 -0.1697913731257859E-01   8   5   6   4
 -0.2577355282993615E-01   8   5   6   5
 -0.3082133406712891E-01   8   5   6   6
 -0.1143263230485769E-16   8   5   7   1
 -0.1499770331019837E-16   8   5   7   2
  0.9791690587409737E-17   8   5   7   3
  0.1094376825877325E-16   8   5   7   4
  0.1614331458080880E-16   8   5   7   5
  0.1173762506009203E-16   8   5   7   6
 -0.3614875568054255E-01   8   5   7   7
 -0.5044619932990761E-03   8   5   8   1
 -0.4795850838627522E-01   8   5   8   2
  0.1338254905925727E-01   8   5   8   3
  0.1378692421527608E-01   8   5   8   4
  0.3129727533491876E-01   8   5   8   5
 -0.2780167382405636E-01   8   6   1   1
  0.3641338606825429E-02   8   6   2   1
 -0.3806499390478983E-01   8   6   2   2
  0.7382561408368196E-02   8   6   3   1
  0.1614875959555502E-01   8   6   3   2
  0.1857168878381969E-02   8   6   3   3
  0.2644657096255407E-02   8   6   4   1
  0.2186638953220911E-01   8   6   4   2
 -0.4089113191428985E-02   8   6   4   3
 -0.3106983243969657E-02   8   6   4   4
  0.6262843170494930E-02   8   6   5   1
  0.1976204234280931E-01   8   6   5   2
 -0.5053967548945759E-02   8   6   5   3
 -0.1021850392996869E-01   8   6   5   4
 -0.3173647766214752E-01   8   6   5   5
  0.1195904877417853E-01   8   6   6   1
  0.5718974915769292E-02   8   6   6   2
 -0.8064223913787034E-02   8   6   6   3
 -0.3115897685079406E-02   8   6   6   4
  0.4777258905223070E-03   8   6   6   5
 -0.1754775204728283E-01   8   6   6   6
 -0.2349571801051462E-16   8   6   7   1
  0.6324643931168961E-18   8   6   7   2
  0.8870686873668704E-17   8   6   7   3
  0.8244163072132531E-17   8   6   7   4
 -0.1921426102957935E-17   8   6   7   5
  0.8629392120461839E-17   8   6   7   6
 -0.1501079422807984E-01   8   6   7   7
 -0.2792640590994182E-01   8   6   8   1
  0.3449491263591402E-02   8   6   8   2
  0.3207926337454071E-02   8   6   8   3
 -0.1028962595110860E-01   8   6   8   4
  0.1172794825547267E-03   8   6   8   5
  0.2267225944112458E-01   8   6   8   6
  0.3529830225932710E-16   8   7   1   1
  0.4510259484342813E-18   8   7   2   1
  0.3256607085627679E-16   8   7   2   2
 -0.8672909439889312E-17   8   7   3   1
 -0.1401896350225299E-16   8   7   3   2
  0.8893551321468826E-18   8   7   3   3
 -0.4570749585475259E-17   8   7   4   1
 -0.1872804558996838E-16   8   7   4   2
  0.3265311455153017E-17   8   7   4   3
  0.3402903247726044E-17   8   7   4   4
 -0.5896870605859579E-17   8   7   5   1
 -0.1507535579788957E-16   8   7   5   2
  0.4678630700616528E-17   8   7   5   3
  0.8687433804411597E-17   8   7   5   4
  0.2777179787257266E-16   8   7   5   5
 -0.2645043026277457E-16   8   7   6   1
 -0.2770480439376841E-18   8   7   6   2
  0.1113752506305353E-16   8   7   6   3
  0.8541307032805958E-17   8   7   6   4
 -0.1960927169643286E-17   8   7   6   5
  0.2225973161125505E-16   8   7   6   6
 -0.5755271848178314E-01   8   7   7   1
  0.1713193550392108E-01   8   7   7   2
  0.1068609951603313E-01   8   7   7   3
  0.1747829658292414E-01   8   7   7   4
 -0.1093517954191707E-01   8   7   7   5
  0.2855992502670017E-02   8   7   7   6
  0.1737834367343564E-16   8   7   7   7
  0.1639170963402472E-16   8   7   8   1
  0.7594322905787847E-18   8   7   8   2
 -0.1996597911239696E-17   8   7   8   3
  0.8379300138725207E-17   8   7   8   4
 -0.1723538203661423E-17   8   7   8   5
 -0.1445969462335520E-17   8   7   8   6
  0.5369480544445735E-01   8   7   8   7
  0.8584591900044498E+00   8   8   1   1
 -0.3405835921550485E-01   8   8   2   1
  0.8266937066729783E+00   8   8   2   2
 -0.8805475583585695E-01   8   8   3   1
 -0.9661508901387242E-01   8   8   3   2
  0.3854580784421989E+00   8   8   3   3
 -0.2856103883264239E-01   8   8   4   1
 -0.9631292421975129E-01   8   8   4   2
  0.1230696603234145E+00   8   8   4   3
  0.6038882633543603E+00   8   8   4   4
  0.2629679329642265E-01   8   8   5   1
 -0.1884692891541976E+00   8   8   5   2
  0.5343701717767986E-01   8   8   5   3
  0.8174756986061726E-01   8   8   5   4
  0.6934827952312022E+00   8   8   5   5
 -0.1539419945941287E+00   8   8   6   1
  0.1876132620332932E-01   8   8   6   2
  0.1003935884565987E+00   8   8   6   3
  0.2658980665880994E-01   8   8   6   4
 -0.1512248277123313E-01   8   8   6   5
  0.6886026698670605E+00   8   8   6   6
  0.9417522743137379E-16   8   8   7   1
 -0.1054647364370182E-16   8   8   7   2
 -0.6547957163716998E-16   8   8   7   3
 -0.8047685636090423E-17   8   8   7   4
 -0.4531428108268937E-17   8   8   7   5
 -0.2227607606293084E-15   8   8   7   6
  0.8458578425227711E+00   8   8   7   7
  0.4966077953518769E-01   8   8   8   1
 -0.8655011432252030E-02   8   8   8   2
  0.1224730387973869E-02   8   8   8   3
  0.1000290465988977E+00   8   8   8   4
 -0.2710033173277260E-01   8   8   8   5
 -0.4814174603081428E-01   8   8   8   6
  0.4523688074536261E-16   8   8   8   7
  0.9219766864233715E+00   8   8   8   8
  0.8459554916922579E+00   9   9   1   1
 -0.4426322277063609E-01   9   9   2   1
  0.7508387078521426E+00   9   9   2   2
 -0.9476222936554986E-01   9   9   3   1
 -0.8918306913945645E-01   9   9   3   2
  0.3699642295294819E+00   9   9   3   3
 -0.7103907809756480E-01   9   9   4   1
 -0.1053491777797030E+00   9   9   4   2
  0.1067199706169640E+00   9   9   4   3
  0.5382973039847028E+00   9   9   4   4
  0.3527490528390836E-01   9   9   5   1
 -0.1826521845754042E+00   9   9   5   2
  0.5117526205011182E-01   9   9   5   3
  0.8316115939902591E-01   9   9   5   4
  0.6692343620262147E+00   9   9   5   5
 -0.1521017386115242E+00   9   9   6   1
  0.1554644964842522E-01   9   9   6   2
  0.1088851888473324E+00   9   9   6   3
  0.3002173520481044E-01   9   9   6   4
 -0.1414228510609444E-01   9   9   6   5
  0.7021385128481251E+00   9   9   6   6
  0.5827059517050954E-01   9   9   7   1
 -0.1524599805520718E-01   9   9   7   2
 -0.1053920629412674E-01   9   9   7   3
 -0.1578490023354848E-01   9   9   7   4
  0.9734205431474267E-02   9   9   7   5
 -0.3977363811897412E-02   9   9   7   6
  0.8824800681700151E+00   9   9   7   7
 -0.3313979826775011E-01   9   9   8   1
  0.2632069641246781E-01   9   9   8   2
  0.1659460426928910E-01   9   9   8   3
  0.9129606225592057E-01   9   9   8   4
 -0.3066353245033619E-01   9   9   8   5
 -0.1453595570917726E-01   9   9   8   6
 -0.4017976848221040E-01   9   9   8   7
  0.8132966098684266E+00   9   9   8   8
  0.8962645472098224E+00   9   9   9   9
 -0.2270438610427285E+00  10   9   1   1
  0.2360708285390316E-01  10   9   2   1
 -0.1856384826492678E+00  10   9   2   2
  0.5171646553001237E-01  10   9   3   1
  0.4246561214120341E-01  10   9   3   2
 -0.3447102706393757E-01  10   9   3   3
  0.3687175194541439E-01  10   9   4   1
  0.6206433864895355E-01  10   9   4   2
 -0.4317743193507410E-01  10   9   4   3
 -0.8458516642925609E-01  10   9   4   4
 -0.2186618773214083E-01  10   9   5   1
  0.1216777345502269E+00  10   9   5   2
 -0.3161475153790200E-01  10   9   5   3
 -0.5621696298395871E-01  10   9   5   4
 -0.1555058327944989E+00  10   9   5   5
  0.1202378941634117E+00  10   9   6   1
 -0.7531111971111587E-02  10   9   6   2
 -0.4124831002675791E-01  10   9   6   3
 -0.3454344186244826E-01  10   9   6   4
  0.6467518145520559E-02  10   9   6   5
 -0.1512645561195016E+00  10   9   6   6
 -0.1737421098003221E-01  10   9   7   1
  0.4755571154312657E-02  10   9   7   2
  0.4801911732730846E-02  10   9   7   3
  0.4064100256241080E-02  10   9   7   4
 -0.5415025773501614E-02  10   9   7   5