 &FCI NORB= 10,NELEC=  4,MS2= 0,
  ORBSYM=1,1,1,2,3,5,5,5,6,7,
  ISYM=1,
 /
  0.6707063951026260E+00   1   1   1   1
 -0.1436564387936143E+00   2   1   1   1
  0.1165750505599863E+00   2   1   2   1
  0.6092046624476625E+00   2   2   1   1
 -0.1252619092862944E+00   2   2   2   1
  0.5787338312685477E+00   2   2   2   2
  0.5997968675102681E-01   3   1   1   1
  0.1305451134983551E-02   3   1   2   1
  0.5184811904213815E-01   3   1   2   2
  0.1018974039037503E+00   3   1   3   1
  0.1958120344122889E-01   3   2   1   1
  0.2502471865056522E-02   3   2   2   1
  0.1684181102098966E-01   3   2   2   2
 -0.8181264076717666E-02   3   2   3   1
  0.1938149427869119E-01   3   2   3   2
  0.6430554799399419E+00   3   3   1   1
 -0.1065988310694268E+00   3   3   2   1
  0.5693202094882410E+00   3   3   2   2
  0.4905152416018401E-01   3   3   3   1
  0.2947434839265435E-01   3   3   3   2
  0.6818797833927550E+00   3   3   3   3
  0.6398657778125362E+00   4   4   1   1
 -0.1096138056220299E+00   4   4   2   1
  0.5655987389792896E+00   4   4   2   2
  0.4432129410529112E-01   4   4   3   1
  0.2068037182568524E-01   4   4   3   2
  0.6167135274718518E+00   4   4   3   3
  0.6797703983770255E+00   4   4   4   4
  0.6398657778125362E+00   5   5   1   1
 -0.1096138056220299E+00   5   5   2   1
  0.5655987389792896E+00   5   5   2   2
  0.4432129410529112E-01   5   5   3   1
  0.2068037182568524E-01   5   5   3   2
  0.6167135274718518E+00   5   5   3   3
  0.6158704749709440E+00   5   5   4   4
  0.6797703983770255E+00   5   5   5   5
  0.6796518140197464E+00   6   6   1   1
 -0.1623434449877467E+00   6   6   2   1
  0.6149762454599815E+00   6   6   2   2
  0.4367779565128743E-01   6   6   3   1
  0.1723215338868843E-01   6   6   3   2
  0.6471617146321071E+00   6   6   3   3
  0.6480695191652461E+00   6   6   4   4
  0.6480695191652461E+00   6   6   5   5
  0.6950602537450415E+00   6   6   6   6
 -0.1615574488462282E+00   7   6   1   1
  0.1028740070132074E+00   7   6   2   1
 -0.1456967560770020E+00   7   6   2   2
 -0.4692852678102314E-01   7   6   3   1
  0.1202348120674360E-02   7   6   3   2
 -0.1217141325997435E+00   7   6   3   3
 -0.1200504127990020E+00   7   6   4   4
 -0.1200504127990020E+00   7   6   5   5
 -0.1688326637054812E+00   7   6   6   6
  0.1166115940626131E+00   7   6   7   6
  0.5659084334274741E+00   7   7   1   1
 -0.1198229085264277E+00   7   7   2   1
  0.5317752925209385E+00   7   7   2   2
  0.3196385938841056E-01   7   7   3   1
  0.1494209277416017E-02   7   7   3   2
  0.5362097046776942E+00   7   7   3   3
  0.5309468549418145E+00   7   7   4   4
  0.5309468549418145E+00   7   7   5   5
  0.5783343724192874E+00   7   7   6   6
 -0.1231511502438520E+00   7   7   7   6
  0.5139811321793157E+00   7   7   7   7
 -0.5705021608974575E-02   8   6   1   1
  0.4121151142655383E-01   8   6   2   1
 -0.7701908211750075E-02   8   6   2   2
  0.8875417389898217E-01   8   6   3   1
 -0.1213185005963050E-01   8   6   3   2
 -0.6694963639540715E-02   8   6   3   3
 -0.3614249183129489E-02   8   6   4   4
 -0.3614249183129489E-02   8   6   5   5
 -0.2474533805394650E-01   8   6   6   6
 -0.2981995083892370E-02   8   6   7   6
 -0.1686155265869333E-01   8   6   7   7
  0.9394399419356415E-01   8   6   8   6
 -0.1895458531703675E-01   8   7   1   1
 -0.4262362820515678E-02   8   7   2   1
 -0.4593508405516167E-02   8   7   2   2
 -0.1910455922958139E-01   8   7   3   1
  0.5211925910150498E-02   8   7   3   2
 -0.4004312911852020E-01   8   7   3   3
 -0.2019047869465902E-01   8   7   4   4
 -0.2019047869465902E-01   8   7   5   5
 -0.1641166444647839E-01   8   7   6   6
  0.2003768244778041E-02   8   7   7   6
 -0.1088570970709824E-01   8   7   7   7
 -0.1861610158442726E-01   8   7   8   6
  0.1855402604783295E-01   8   7   8   7
  0.6550550090535967E+00   8   8   1   1
 -0.1108594368336677E+00   8   8   2   1
  0.5832535385380128E+00   8   8   2   2
  0.5194707348753722E-01   8   8   3   1
  0.3742844376088694E-01   8   8   3   2
  0.6855272793017000E+00   8   8   3   3
  0.6273662651517535E+00   8   8   4   4
  0.6273662651517535E+00   8   8   5   5
  0.6580190026568306E+00   8   8   6   6
 -0.1297264366585003E+00   8   8   7   6
  0.5389716447975538E+00   8   8   7   7
 -0.7121568688379570E-02   8   8   8   6
 -0.3244117694709167E-01   8   8   8   7
  0.6973228559015977E+00   8   8   8   8
  0.6400918916246993E+00   9   9   1   1
 -0.1103404258305657E+00   9   9   2   1
  0.5655444398557969E+00   9   9   2   2
  0.4359465134685962E-01   9   9   3   1
  0.2046659081302452E-01   9   9   3   2
  0.6166524315835005E+00   9   9   3   3
  0.6803779658228913E+00   9   9   4   4
  0.6161981617114626E+00   9   9   5   5
  0.6486108300239160E+00   9   9   6   6
 -0.1202122660479380E+00   9   9   7   6
  0.5313268859892362E+00   9   9   7   7
 -0.4339586249482080E-02   9   9   8   6
 -0.2010667407642725E-01   9   9   8   7
  0.6272448447430558E+00   9   9   8   8
  0.6810084761912923E+00   9   9   9   9
  0.6400918916246993E+00  10  10   1   1
 -0.1103404258305657E+00  10  10   2   1
  0.5655444398557969E+00  10  10   2   2
  0.4359465134685962E-01  10  10   3   1
  0.2046659081302452E-01  10  10   3   2
  0.6166524315835005E+00  10  10   3   3
  0.6161981617114626E+00  10  10   4   4
  0.6803779658228913E+00  10  10   5   5
  0.6486108300239160E+00  10  10   6   6
 -0.1202122660479380E+00  10  10   7   6
  0.5313268859892362E+00  10  10   7   7
 -0.4339586249482080E-02  10  10   8   6
 -0.2010667407642725E-01  10  10   8   7
  0.6272448447430558E+00  10  10   8   8
  0.6165425159229847E+00  10  10   9   9
  0.6810084761912923E+00  10  10  10  10
  0.9412705531794284E-01   4   1   4   1
 -0.1395616648543176E-01   4   2   4   1
  0.1670955596788255E-01   4   2   4   2
  0.1036742314630818E-02   4   3   4   1
  0.3800743403158972E-02   4   3   4   2
  0.3147909200197280E-01   4   3   4   3
  0.9628040207392628E-01   9   6   4   1
 -0.1582494199360634E-01   9   6   4   2
 -0.1549622312659483E-02   9   6   4   3
  0.9891336305173606E-01   9   6   9   6
 -0.6134755447974403E-02   9   7   4   1
  0.1248925232468374E-01   9   7   4   2
 -0.9558675431764221E-02   9   7   4   3
 -0.6379146817301627E-02   9   7   9   6
  0.1521975180769504E-01   9   7   9   7
  0.7417158847397256E-02   9   8   4   1
  0.8868964359429124E-02   9   8   4   2
  0.3065930145605397E-01   9   8   4   3
  0.4664720531196319E-02   9   8   9   6
 -0.3902929728910622E-02   9   8   9   7
  0.3314915426770113E-01   9   8   9   8
  0.9412705531794284E-01   5   1   5   1
 -0.1395616648543176E-01   5   2   5   1
  0.1670955596788255E-01   5   2   5   2
  0.1036742314630818E-02   5   3   5   1
  0.3800743403158972E-02   5   3   5   2
  0.3147909200197280E-01   5   3   5   3
  0.9628040207392628E-01  10   6   5   1
 -0.1582494199360634E-01  10   6   5   2
 -0.1549622312659483E-02  10   6   5   3
  0.9891336305173606E-01  10   6  10   6
 -0.6134755447974403E-02  10   7   5   1
  0.1248925232468374E-01  10   7   5   2
 -0.9558675431764221E-02  10   7   5   3
 -0.6379146817301627E-02  10   7  10   6
  0.1521975180769504E-01  10   7  10   7
  0.7417158847397256E-02  10   8   5   1
  0.8868964359429124E-02  10   8   5   2
  0.3065930145605397E-01  10   8   5   3
  0.4664720531196319E-02  10   8  10   6
 -0.3902929728910622E-02  10   8  10   7
  0.3314915426770113E-01  10   8  10   8
  0.3194996170284513E-01   5   4   5   4
  0.3208990205571436E-01  10   9   5   4
  0.3223298013079320E-01  10   9  10   9
  0.3520767174339176E+00   6   1   6   1
 -0.1807009250028323E+00   6   2   6   1
  0.1341178439344144E+00   6   2   6   2
 -0.2113398479190138E-01   6   3   6   1
  0.3148528145996353E-02   6   3   6   2
  0.8636507511416157E-01   6   3   6   3
 -0.1287934155250200E+00   7   1   6   1
  0.1071645021864374E+00   7   1   6   2
 -0.3061781489270850E-01   7   1   6   3
  0.9940453881778578E-01   7   1   7   1
  0.2520267282856635E+00   7   2   6   1
 -0.1359766450018220E+00   7   2   6   2
 -0.1569004957006313E-01   7   2   6   3
 -0.9704094516593680E-01   7   2   7   1
  0.2008535636044977E+00   7   2   7   2
 -0.1218140626894696E+00   7   3   6   1
  0.4882256488348530E-01   7   3   6   2
  0.4118444870876961E-03   7   3   6   3
  0.3422910519034224E-01   7   3   7   1
 -0.8883306625009484E-01   7   3   7   2
  0.6075816852672838E-01   7   3   7   3
 -0.3252388072568831E-01   8   1   6   1
  0.3172659557364160E-01   8   1   6   2
  0.7677937848122850E-01   8   1   6   3
 -0.1879402113158067E-02   8   1   7   1
 -0.2793130317776414E-01   8   1   7   2
 -0.2561342659604545E-02   8   1   7   3
  0.8065431646170980E-01   8   1   8   1
  0.1050664107138485E+00   8   2   6   1
 -0.5322933937633263E-01   8   2   6   2
 -0.2736699330956834E-01   8   2   6   3
 -0.3106747936316302E-01   8   2   7   1
  0.7551775205101480E-01   8   2   7   2
 -0.2618263786596041E-01   8   2   7   3
 -0.2815489739290501E-01   8   2   8   1
  0.4710865158078464E-01   8   2   8   2
  0.2852528617954924E+00   8   3   6   1
 -0.1246732798938269E+00   8   3   6   2
 -0.2933041711252950E-01   8   3   6   3
 -0.8267894651659537E-01   8   3   7   1
  0.1849844959419093E+00   8   3   7   2
 -0.1126239036855110E+00   8   3   7   3
 -0.2375465455994653E-01   8   3   8   1
  0.9123159139430180E-01   8   3   8   2
  0.2910731370267154E+00   8   3   8   3
  0.3199352949773110E+00   9   4   6   1
 -0.1355922785431730E+00   9   4   6   2
 -0.2614815166047015E-01   9   4   6   3
 -0.8751335652174683E-01   9   4   7   1
  0.2131269360310074E+00   9   4   7   2
 -0.1118057811560570E+00   9   4   7   3
 -0.2135013412816122E-01   9   4   8   1
  0.9405328856113694E-01   9   4   8   2
  0.2647514648761377E+00   9   4   8   3
  0.3601529333003967E+00   9   4   9   4
  0.3199352949773110E+00  10   5   6   1
 -0.1355922785431730E+00  10   5   6   2
 -0.2614815166047015E-01  10   5   6   3
 -0.8751335652174683E-01  10   5   7   1
  0.2131269360310074E+00  10   5   7   2
 -0.1118057811560570E+00  10   5   7   3
 -0.2135013412816122E-01  10   5   8   1
  0.9405328856113694E-01  10   5   8   2
  0.2647514648761377E+00  10   5   8   3
  0.2969207905804027E+00  10   5   9   4
  0.3601529333003967E+00  10   5  10   5
  0.9074314027855643E-01   6   4   6   4
 -0.7882163979134525E-02   7   4   6   4
  0.1471927858488100E-01   7   4   7   4
  0.7761880469758441E-03   8   4   6   4
 -0.4517645474618623E-02   8   4   7   4
  0.3068889987002028E-01   8   4   8   4
  0.8771696943133490E-01   9   1   6   4
 -0.7762570718243703E-02   9   1   7   4
  0.2836216550429645E-02   9   1   8   4
  0.8497384732075208E-01   9   1   9   1
 -0.1902351568417269E-01   9   2   6   4
  0.1195080760301823E-01   9   2   7   4
  0.7015604510526565E-02   9   2   8   4
 -0.1768403140769197E-01   9   2   9   1
  0.1544691087185315E-01   9   2   9   2
 -0.4038869764535749E-02   9   3   6   4
 -0.9782280398537299E-02   9   3   7   4
  0.2892317324190639E-01   9   3   8   4
 -0.2018600655430208E-02   9   3   9   1
  0.2570026363317069E-02   9   3   9   2
  0.3014345821551779E-01   9   3   9   3
  0.9074314027855643E-01   6   5   6   5
 -0.7882163979134525E-02   7   5   6   5
  0.1471927858488100E-01   7   5   7   5
  0.7761880469758441E-03   8   5   6   5
 -0.4517645474618623E-02   8   5   7   5
  0.3068889987002028E-01   8   5   8   5
  0.8771696943133490E-01  10   1   6   5
 -0.7762570718243703E-02  10   1   7   5
  0.2836216550429645E-02  10   1   8   5
  0.8497384732075208E-01  10   1  10   1
 -0.1902351568417269E-01  10   2   6   5
  0.1195080760301823E-01  10   2   7   5
  0.7015604510526565E-02  10   2   8   5
 -0.1768403140769197E-01  10   2  10   1
  0.1544691087185315E-01  10   2  10   2
 -0.4038869764535749E-02  10   3   6   5
 -0.9782280398537299E-02  10   3   7   5
  0.2892317324190639E-01  10   3   8   5
 -0.2018600655430208E-02  10   3  10   1
  0.2570026363317069E-02  10   3  10   2
  0.3014345821551779E-01  10   3  10   3
  0.3161607134153081E-01   9   5   9   5
  0.3161607135999709E-01  10   4   9   5
  0.3161607134153081E-01  10   4  10   4
 -0.2648265388777857E+01   1   1   0   0
  0.2876424088224674E+00   2   1   0   0
 -0.8468637163001526E+00   2   2   0   0
 -0.1684692683175379E+00   3   1   0   0
 -0.6917273437885404E-01   3   2   0   0
 -0.1035787335893512E-01   3   3   0   0
  0.1113467087716952E+00   4   4   0   0
  0.1113467087716952E+00   5   5   0   0
 -0.2557053074177182E+01   6   6   0   0
  0.3631541296942589E+00   7   6   0   0
 -0.5660462860939556E+00   7   7   0   0
  0.3631499767124846E-02   8   6   0   0
  0.6587110232998000E-01   8   7   0   0
  0.3886806426988064E+00   8   8   0   0
  0.1545022776900229E+00   9   9   0   0
  0.1545022776900229E+00  10  10   0   0
  0.1333333333333333E+01   0   0   0   0
