 &FCI NORB= 13,NELEC=  8,MS2= 0,
  ORBSYM=1,1,1,1,2,2,3,3,4,5,5,6,7,
  ISYM=1,
  DENSITY=2,
  PROFILER=1,
  ENERGY=-128.67902505,
  THING=ANY,
 /
  0.1022548253089714E+01   1   1   1   1
 -0.2273943588237523E+00   2   1   1   1
  0.1382571209247375E+00   2   1   2   1
  0.8250551938845119E+00   2   2   1   1
 -0.1445517571238724E+00   2   2   2   1
  0.7115051002849926E+00   2   2   2   2
  0.2254844797543731E-11   3   1   1   1
 -0.3713485798364208E-12   3   1   2   1
  0.1247008826920725E-11   3   1   2   2
  0.1051463042641460E+00   3   1   3   1
  0.2188707823281471E-11   3   2   1   1
 -0.8971651128763873E-12   3   2   2   1
  0.1576351253854956E-11   3   2   2   2
 -0.2742733998204516E-01   3   2   3   1
  0.2250442505022077E-01   3   2   3   2
  0.1028821079462186E+01   3   3   1   1
 -0.2125208814379240E+00   3   3   2   1
  0.8188650189172312E+00   3   3   2   2
  0.7353260026763377E-01   3   3   3   1
 -0.1799480315926658E-01   3   3   3   2
  0.1141195161346573E+01   3   3   3   3
 -0.1605449394061603E-17   4   1   1   1
  0.2651924462342287E-18   4   1   2   1
 -0.9036028658480808E-18   4   1   2   2
  0.9310723226134943E-18   4   1   3   1
 -0.1731919965858763E-17   4   1   3   2
 -0.1685396844319269E-06   4   1   3   3
  0.1051463042653605E+00   4   1   4   1
 -0.1568741331898406E-17   4   2   1   1
  0.6383499036390952E-18   4   2   2   1
 -0.1127484426032394E-17   4   2   2   2
 -0.1731973257348429E-17   4   2   3   1
  0.7919901068345310E-18   4   2   3   2
  0.4124481435506185E-07   4   2   3   3
 -0.2742733998426029E-01   4   2   4   1
  0.2250442505123236E-01   4   2   4   2
  0.9259582925970807E-18   4   3   1   1
 -0.1731117413219329E-17   4   3   2   1
  0.7873301276129505E-18   4   3   2   2
 -0.1685396844301096E-06   4   3   3   1
  0.4124481435121905E-07   4   3   3   2
 -0.4323373722550651E-17   4   3   3   3
 -0.7353260026288726E-01   4   3   4   1
  0.1799480316875853E-01   4   3   4   2
  0.6677735878495290E-01   4   3   4   3
  0.1028821079463400E+01   4   4   1   1
 -0.2125208814401385E+00   4   4   2   1
  0.8188650189182387E+00   4   4   2   2
 -0.7353260026037899E-01   4   4   3   1
  0.1799480316382329E-01   4   4   3   2
  0.1007640443771001E+01   4   4   3   3
  0.1685396844266437E-06   4   4   4   1
 -0.4124481435830622E-07   4   4   4   2
  0.2557106440977027E-17   4   4   4   3
  0.1141195161344306E+01   4   4   4   4
  0.9937583904259135E+00   5   5   1   1
 -0.2203011296992743E+00   5   5   2   1
  0.8103324852530176E+00   5   5   2   2
 -0.4091035249197624E-01   5   5   3   1
  0.1116219602024393E-01   5   5   3   2
  0.9677273727099431E+00   5   5   3   3
  0.7085893411333442E-01   5   5   4   1
 -0.1933352475765607E-01   5   5   4   2
 -0.4859313517619747E-01   5   5   4   3
  0.1023838090065254E+01   5   5   4   4
  0.1041012837535734E+01   5   5   5   5
 -0.2661688230662115E+00   6   5   1   1
  0.1509298560856618E+00   6   5   2   1
 -0.1731950555148904E+00   6   5   2   2
  0.1236877397692567E-01   6   5   3   1
 -0.1131402563656538E-01   6   5   3   2
 -0.2429560051740852E+00   6   5   3   3
 -0.2142338277396790E-01   6   5   4   1
  0.1959650183772136E-01   6   5   4   2
  0.1380814213295951E-01   6   5   4   3
 -0.2589003305945085E+00   6   5   4   4
 -0.2835005279243525E+00   6   5   5   5
  0.1993437564498496E+00   6   5   6   5
  0.7901714853067950E+00   6   6   1   1
 -0.1475461192618657E+00   6   6   2   1
  0.6867763133887465E+00   6   6   2   2
 -0.2269361882975503E-01   6   6   3   1
  0.5431744193825497E-02   6   6   3   2
  0.7628256097420233E+00   6   6   3   3
  0.3930657028383221E-01   6   6   4   1
 -0.9408073469596519E-02   6   6   4   2
 -0.2581336860450372E-01   6   6   4   3
  0.7926324255872745E+00   6   6   4   4
  0.8275602256083012E+00   6   6   5   5
 -0.1851531558918650E+00   6   6   6   5
  0.7168737517057517E+00   6   6   6   6
  0.9937583904259135E+00   7   7   1   1
 -0.2203011296992743E+00   7   7   2   1
  0.8103324852530176E+00   7   7   2   2
 -0.4091046076628436E-01   7   7   3   1
  0.1116222556237638E-01   7   7   3   2
  0.9677275212133073E+00   7   7   3   3
 -0.7085887160113351E-01   7   7   4   1
  0.1933350770149796E-01   7   7   4   2
  0.4859322091465482E-01   7   7   4   3
  0.1023837941561890E+01   7   7   4   4
  0.9376615773377882E+00   7   7   5   5
 -0.2511334776139518E+00   7   7   6   5
  0.7596044034192224E+00   7   7   6   6
  0.1041012837535734E+01   7   7   7   7
 -0.2661688230662115E+00   8   7   1   1
  0.1509298560856618E+00   8   7   2   1
 -0.1731950555148904E+00   8   7   2   2
  0.1236880671241602E-01   8   7   3   1
 -0.1131405558053367E-01   8   7   3   2
 -0.2429560473725470E+00   8   7   3   3
  0.2142336387412381E-01   8   7   4   1
 -0.1959648454956321E-01   8   7   4   2
 -0.1380816649625272E-01   8   7   4   3
 -0.2589002883960466E+00   8   7   4   4
 -0.2511334776139517E+00   8   7   5   5
  0.1568313334959163E+00   8   7   6   5
 -0.1741454661313999E+00   8   7   6   6
 -0.2835005279243525E+00   8   7   7   7
  0.1993437564498496E+00   8   7   8   7
  0.7901714853067950E+00   8   8   1   1
 -0.1475461192618657E+00   8   8   2   1
  0.6867763133887465E+00   8   8   2   2
 -0.2269367889122465E-01   8   8   3   1
  0.5431758569608213E-02   8   8   3   2
  0.7628256886291349E+00   8   8   3   3
 -0.3930653560732680E-01   8   8   4   1
  0.9408065169734414E-02   8   8   4   2
  0.2581341414999873E-01   8   8   4   3
  0.7926323467001629E+00   8   8   4   4
  0.7596044034192223E+00   8   8   5   5
 -0.1741454661313995E+00   8   8   6   5
  0.6509364063924536E+00   8   8   6   6
  0.8275602256083012E+00   8   8   7   7
 -0.1851531558918650E+00   8   8   8   7
  0.7168737517057517E+00   8   8   8   8
  0.1028821079463400E+01   9   9   1   1
 -0.2125208814401378E+00   9   9   2   1
  0.8188650189182380E+00   9   9   2   2
 -0.7353260026055042E-01   9   9   3   1
  0.1799480316386453E-01   9   9   3   2
  0.1007640443771037E+01   9   9   3   3
  0.5617989480771160E-07   9   9   4   1
 -0.1374827145018292E-07   9   9   4   2
  0.4873437567800919E-07   9   9   4   3
  0.1071427771567760E+01   9   9   4   4
  0.1023838015813604E+01   9   9   5   5
 -0.2589003094952868E+00   9   9   6   5
  0.7926323861437357E+00   9   9   6   6
  0.1023838015813604E+01   9   9   7   7
 -0.2589003094952868E+00   9   9   8   7
  0.7926323861437357E+00   9   9   8   8
  0.1141195161344304E+01   9   9   9   9
  0.9937583904248660E+00  10  10   1   1
 -0.2203011296973922E+00  10  10   2   1
  0.8103324852520519E+00  10  10   2   2
  0.8182081328079992E-01  10  10   3   1
 -0.2232442160504589E-01  10  10   3   2
  0.1051893300240513E+01  10  10   3   3
 -0.6251220094068677E-07  10  10   4   1
  0.1705615812541107E-07  10  10   4   2
 -0.8573845735167142E-07  10  10   4   3
  0.9396721625366229E+00  10  10   4   4
  0.9376615773377561E+00  10  10   5   5
 -0.2511334776139316E+00  10  10   6   5
  0.7596044034191995E+00  10  10   6   6
  0.9376615773377561E+00  10  10   7   7
 -0.2511334776139316E+00  10  10   8   7
  0.7596044034191995E+00  10  10   8   8
  0.9396721625365567E+00  10  10   9   9
  0.1041012837535662E+01  10  10  10  10
 -0.2661688230659180E+00  11  10   1   1
  0.1509298560850044E+00  11  10   2   1
 -0.1731950555139382E+00  11  10   2   2
 -0.2473758071319546E-01  11  10   3   1
  0.2262808125150894E-01  11  10   3   2
 -0.2668724511069210E+00  11  10   3   3
  0.1889984411446616E-07  11  10   4   1
 -0.1728815817617262E-07  11  10   4   2
  0.2436329331530895E-07  11  10   4   3
 -0.2349838846629944E+00  11  10   4   4
 -0.2511334776139630E+00  11  10   5   5
  0.1568313334959207E+00  11  10   6   5
 -0.1741454661314061E+00  11  10   6   6
 -0.2511334776139630E+00  11  10   7   7
  0.1568313334959207E+00  11  10   8   7
 -0.1741454661314061E+00  11  10   8   8
 -0.2349838846629755E+00  11  10   9   9
 -0.2835005279243408E+00  11  10  10  10
  0.1993437564498621E+00  11  10  11  10
  0.7901714853062668E+00  11  11   1   1
 -0.1475461192608620E+00  11  11   2   1
  0.6867763133883139E+00  11  11   2   2
  0.4538729785657274E-01  11  11   3   1
 -0.1086350278084795E-01  11  11   3   2
  0.8075357546233506E+00  11  11   3   3
 -0.3467650552465837E-07  11  11   4   1
  0.8299862119789468E-08  11  11   4   2
 -0.4554549522072160E-07  11  11   4   3
  0.7479222807070669E+00  11  11   4   4
  0.7596044034192541E+00  11  11   5   5
 -0.1741454661314189E+00  11  11   6   5
  0.6509364063924744E+00  11  11   6   6
  0.7596044034192541E+00  11  11   7   7
 -0.1741454661314189E+00  11  11   8   7
  0.6509364063924744E+00  11  11   8   8
  0.7479222807070313E+00  11  11   9   9
  0.8275602256083133E+00  11  11  10  10
 -0.1851531558918970E+00  11  11  11  10
  0.7168737517057988E+00  11  11  11  11
  0.1028821079462488E+01  12  12   1   1
 -0.2125208814384760E+00  12  12   2   1
  0.8188650189174794E+00  12  12   2   2
  0.3676634877946900E-01  12  12   3   1
 -0.8997413472014229E-02  12  12   3   2
  0.1055480897414222E+01  12  12   3   3
  0.6368107174478652E-01  12  12   4   1
 -0.1558394979898154E-01  12  12   4   2
 -0.2762074750666501E-01  12  12   4   3
  0.1023587317926275E+01  12  12   4   4
  0.1023838015813605E+01  12  12   5   5
 -0.2589003094952871E+00  12  12   6   5
  0.7926323861437360E+00  12  12   6   6
  0.9396721625365869E+00  12  12   7   7
 -0.2349838846629633E+00  12  12   8   7
  0.7479222807070020E+00  12  12   8   8
  0.1023587275721049E+01  12  12   9   9
  0.1023838015813572E+01  12  12  10  10
 -0.2589003094953020E+00  12  12  11  10
  0.7926323861437689E+00  12  12  11  11
  0.1141195161344304E+01  12  12  12  12
  0.1028821079462489E+01  13  13   1   1
 -0.2125208814384765E+00  13  13   2   1
  0.8188650189174794E+00  13  13   2   2
  0.3676625147303682E-01  13  13   3   1
 -0.8997389659309567E-02  13  13   3   2
  0.1055480981824636E+01  13  13   3   3
 -0.6368112792468132E-01  13  13   4   1
  0.1558396354725297E-01  13  13   4   2
  0.2762069877228933E-01  13  13   4   3
  0.1023587233515860E+01  13  13   4   4
  0.9396721625365869E+00  13  13   5   5
 -0.2349838846629633E+00  13  13   6   5
  0.7479222807070020E+00  13  13   6   6
  0.1023838015813605E+01  13  13   7   7
 -0.2589003094952871E+00  13  13   8   7
  0.7926323861437360E+00  13  13   8   8
  0.1023587275721049E+01  13  13   9   9
  0.1023838015813572E+01  13  13  10  10
 -0.2589003094953020E+00  13  13  11  10
  0.7926323861437689E+00  13  13  11  11
  0.1023587275721049E+01  13  13  12  12
  0.1141195161344304E+01  13  13  13  13
  0.2004879106837540E+00   5   1   5   1
 -0.3945518142517481E-01   5   2   5   1
  0.5952882942348520E-01   5   2   5   2
 -0.8846851141018956E-01   5   3   5   1
  0.1765503493423392E-01   5   3   5   2
  0.6608162510255777E-01   5   3   5   3
  0.1532322269996919E+00   5   4   5   1
 -0.3057947148284527E-01   5   4   5   2
 -0.7615842024671080E-01   5   4   5   3
  0.1540221042920453E+00   5   4   5   4
 -0.5765849765236548E-01   6   1   5   1
  0.5295508633031915E-01   6   1   5   2
  0.2566664656118803E-01   6   1   5   3
 -0.4445601434248991E-01   6   1   5   4
  0.5007864612599142E-01   6   1   6   1
  0.1362130820865343E+00   6   2   5   1
 -0.8325290687510528E-02   6   2   5   2
 -0.5715622269039095E-01   6   2   5   3
  0.9899765637680788E-01   6   2   5   4
 -0.2387659514837746E-01   6   2   6   1
  0.1173833820692714E+00   6   2   6   2
  0.3015102049511617E-01   6   3   5   1
 -0.1773013027456729E-01   6   3   5   2
 -0.2230459547831099E-01   6   3   5   3
  0.2567278637914918E-01   6   3   5   4
 -0.1807282620575212E-01   6   3   6   1
  0.1700985421845656E-01   6   3   6   2
  0.1361515919364638E-01   6   3   6   3
 -0.5222319154654424E-01   6   4   5   1
  0.3070954063643997E-01   6   4   5   2
  0.2567278638010186E-01   6   4   5   3
 -0.5194908034521068E-01   6   4   5   4
  0.3130310845730744E-01   6   4   6   1
 -0.2946198375541545E-01   6   4   6   2
 -0.1456567936081394E-01   6   4   6   3
  0.3043421635626105E-01   6   4   6   4
  0.1532321594085153E+00   9   7   5   1
 -0.3057945799415226E-01   9   7   5   2
 -0.7615842044015943E-01   9   7   5   3
  0.8768719134371034E-01   9   7   5   4
 -0.4445599472829939E-01   9   7   6   1
  0.9899761270123475E-01   9   7   6   2
  0.2567278648816570E-01   9   7   6   3
 -0.2950176621790495E-01   9   7   6   4
  0.1540219879198808E+00   9   7   9   7
 -0.5222316851525857E-01   9   8   5   1
  0.3070952709779511E-01   9   8   5   2
  0.2567278648911833E-01   9   8   5   3
 -0.2950176621790494E-01   9   8   5   4
  0.3130309464941611E-01   9   8   6   1
 -0.2946197075964965E-01   9   8   6   2
 -0.1456568089026241E-01   9   8   6   3
  0.1481717980183415E-01   9   8   6   4
 -0.5194904111648584E-01   9   8   9   7
  0.3043419409950183E-01   9   8   9   8
  0.1532321594083539E+00  12  10   5   1
 -0.3057945799361216E-01  12  10   5   2
 -0.3785995729295485E-01  12  10   5   3
  0.1097987803372582E+00  12  10   5   4
 -0.4445599472824392E-01  12  10   6   1
  0.9899761270105073E-01  12  10   6   2
  0.1271282924186418E-01  12  10   6   3
 -0.3698418782063885E-01  12  10   6   4
  0.1097987514117099E+00  12  10   9   7
 -0.3698417810785559E-01  12  10   9   8
  0.1540219879198742E+00  12  10  12  10
 -0.5222316851521489E-01  12  11   5   1
  0.3070952709761484E-01  12  11   5   2
  0.1271282924281965E-01  12  11   5   3
 -0.3698418782064707E-01  12  11   5   4
  0.3130309464938175E-01  12  11   6   1
 -0.2946197075952920E-01  12  11   6   2
 -0.5549183029935565E-02  12  11   6   3
  0.2002284805512846E-01  12  11   6   4
 -0.3698417810786394E-01  12  11   9   7
  0.2002284381547216E-01  12  11   9   8
 -0.5194904111649377E-01  12  11  12  10
  0.3043419409950852E-01  12  11  12  11
  0.2004879106837540E+00   7   1   7   1
 -0.3945518142517481E-01   7   2   7   1
  0.5952882942348520E-01   7   2   7   2
 -0.8846874555304776E-01   7   3   7   1
  0.1765508166046768E-01   7   3   7   2
  0.6608185784698932E-01   7   3   7   3
 -0.1532320918172496E+00   7   4   7   1
  0.3057944450544155E-01   7   4   7   2
  0.7615855462177105E-01   7   4   7   3
  0.1540218715476137E+00   7   4   7   4
 -0.5765849765236548E-01   8   1   7   1
  0.5295508633031915E-01   8   1   7   2
  0.2566671449114292E-01   8   1   7   3
  0.4445597512311218E-01   8   1   7   4
  0.5007864612599142E-01   8   1   8   1
  0.1362130820865343E+00   8   2   7   1
 -0.8325290687510528E-02   8   2   7   2
 -0.5715637396140417E-01   8   2   7   3
 -0.9899756904044779E-01   8   2   7   4
 -0.2387659514837746E-01   8   2   8   1
  0.1173833820692714E+00   8   2   8   2
  0.3015110029352136E-01   8   3   7   1
 -0.1773017719955027E-01   8   3   7   2
 -0.2230467393579542E-01   8   3   7   3
 -0.2567283167659897E-01   8   3   7   4
 -0.1807287403772219E-01   8   3   8   1
  0.1700989923713993E-01   8   3   8   2
  0.1361520370718475E-01   8   3   8   3
  0.5222314547491352E-01   8   4   7   1
 -0.3070951354428856E-01   8   4   7   2
 -0.2567283167755165E-01   8   4   7   3
 -0.5194900188772621E-01   8   4   7   4
 -0.3130308084150667E-01   8   4   8   1
  0.2946195776386675E-01   8   4   8   2
  0.1456570506071733E-01   8   4   8   3
  0.3043417184272266E-01   8   4   8   4
  0.1532321594085153E+00   9   5   7   1
 -0.3057945799415226E-01   9   5   7   2
 -0.7615855442845576E-01   9   5   7   3
 -0.8768707497149453E-01   9   5   7   4
 -0.4445599472829939E-01   9   5   8   1
  0.9899761270123475E-01   9   5   8   2
  0.2567283157032160E-01   9   5   8   3
  0.2950172698916268E-01   9   5   8   4
  0.1540219879198808E+00   9   5   9   5
 -0.5222316851525857E-01   9   6   7   1
  0.3070952709779512E-01   9   6   7   2
  0.2567283157127431E-01   9   6   7   3
  0.2950172698916273E-01   9   6   7   4
  0.3130309464941611E-01   9   6   8   1
 -0.2946197075128440E-01   9   6   8   2
 -0.1456570352894155E-01   9   6   8   3
 -0.1481715754506494E-01   9   6   8   4
 -0.5194904111648584E-01   9   6   9   5
  0.3043419409950183E-01   9   6   9   6
  0.1532321594083539E+00  13  10   7   1
 -0.3057945799361216E-01  13  10   7   2
 -0.3786012506839820E-01  13  10   7   3
 -0.1097987224860976E+00  13  10   7   4
 -0.4445599472824392E-01  13  10   8   1
  0.9899761270105073E-01  13  10   8   2
  0.1271288575468240E-01  13  10   8   3
  0.3698416839505088E-01  13  10   8   4
  0.1097987514117099E+00  13  10   9   5
 -0.3698417810785559E-01  13  10   9   6
  0.1540219879198742E+00  13  10  13  10
 -0.5222316851521489E-01  13  11   7   1
  0.3070952709761484E-01  13  11   7   2
  0.1271288575563786E-01  13  11   7   3
  0.3698416839505912E-01  13  11   7   4
  0.3130309464938175E-01  13  11   8   1
 -0.2946197075952920E-01  13  11   8   2
 -0.5549213625379092E-02  13  11   8   3
 -0.2002283957580426E-01  13  11   8   4
 -0.3698417810786394E-01  13  11   9   5
  0.2002284381547216E-01  13  11   9   6
 -0.5194904111649377E-01  13  11  13  10
  0.3043419409950852E-01  13  11  13  11
  0.5167563009897313E-01   7   5   7   5
 -0.1618352515520039E-01   7   6   7   5
  0.2125621144363433E-01   7   6   7   6
 -0.1618352515520040E-01   8   5   7   5
  0.2125621147822434E-01   8   5   7   6
  0.2125621144363435E-01   8   5   8   5
  0.3397791109328195E-01   8   6   7   5
 -0.5503844836865789E-02   8   6   7   6
 -0.5503844836865775E-02   8   6   8   5
  0.3296867246163513E-01   8   6   8   6
  0.7085890285725459E-01   9   1   7   5
 -0.2142337332405217E-01   9   1   7   6
 -0.2142337332405215E-01   9   1   8   5
  0.3930655295133768E-01   9   1   8   6
  0.1051463042653607E+00   9   1   9   1
 -0.1933351624200860E-01   9   2   7   5
  0.1959649320981524E-01   9   2   7   6
  0.1959649320981531E-01   9   2   8   5
 -0.9408069247803732E-02   9   2   8   6
 -0.2742733998426058E-01   9   2   9   1
  0.2250442505123317E-01   9   2   9   2
 -0.4859317804546871E-01   9   3   7   5
  0.1380815431192402E-01   9   3   7   6
  0.1380815431192399E-01   9   3   8   5
 -0.2581339141143585E-01   9   3   8   6
 -0.7353260026305891E-01   9   3   9   1
  0.1799480316880023E-01   9   3   9   2
  0.6677735878493414E-01   9   3   9   3
  0.3712584107306242E-07   9   4   7   5
 -0.1054961546284326E-07   9   4   7   6
 -0.1054961546284325E-07   9   4   8   5
  0.1972177794588724E-07   9   4   8   6
  0.5617989480953152E-07   9   4   9   1
 -0.1374827145407720E-07   9   4   9   2
 -0.2436718784403205E-07   9   4   9   3
  0.3488369488001865E-01   9   4   9   4
  0.4208292663850897E-01  13  12   7   5
 -0.1195821241616186E-01  13  12   7   6
 -0.1195821241616187E-01  13  12   8   5
  0.2235505271836712E-01  13  12   8   6
  0.6368109983475248E-01  13  12   9   1
 -0.1558395667933477E-01  13  12   9   2
 -0.2762072315478651E-01  13  12   9   3
  0.2110260368663885E-07  13  12   9   4
  0.5880394281162775E-01  13  12  13  12
  0.2004879106815546E+00  10   1  10   1
 -0.3945518142121455E-01  10   2  10   1
  0.5952882942199562E-01  10   2  10   2
  0.1769372569662494E+00  10   3  10   1
 -0.3531011660619784E-01  10   3  10   2
  0.1979921111442906E+00  10   3  10   3
 -0.1351824421914286E-06  10   4  10   1
  0.2697740362165639E-07  10   4  10   2
 -0.1343750602472912E-06  10   4  10   3
  0.2211161823865546E-01  10   4  10   4
 -0.5765849765168363E-01  11   1  10   1
  0.5295508632901846E-01  11   1  10   2
 -0.5133336105495985E-01  11   1  10   3
  0.3921937771773930E-07  11   1  10   4
  0.5007864612555098E-01  11   1  11   1
  0.1362130820845562E+00  11   2  10   1
 -0.8325290684350010E-02  11   2  10   2
  0.1143125966956538E+00  11   2  10   3
 -0.8733636012856372E-07  11   2  10   4
 -0.2387659514741687E-01  11   2  11   1
  0.1173833820678375E+00  11   2  11   2
 -0.6030212079487859E-01  11   3  10   1
  0.3546030746434799E-01  11   3  10   2
 -0.6677124432319002E-01  11   3  10   3
  0.4529744977788574E-07  11   3  10   4
  0.3614570024497192E-01  11   3  11   1
 -0.3401975349885688E-01  11   3  11   2
  0.3884370041998599E-01  11   3  11   3
  0.4607163069063439E-07  11   4  10   1
 -0.2709215145572538E-07  11   4  10   2
  0.4529744977784464E-07  11   4  10   3
 -0.7482431505965352E-02  11   4  10   4
 -0.2761580075114020E-07  11   4  11   1
  0.2599154886635009E-07  11   4  11   2
 -0.2569990335523697E-07  11   4  11   3
  0.5205675168646046E-02  11   4  11   4
  0.1532321594077272E+00  12   5  10   1
 -0.3057945799147364E-01  12   5  10   2
  0.1140185455119187E+00  12   5  10   3
  0.2211153114500754E-01  12   5  10   4
 -0.4445599472804467E-01  12   5  11   1
  0.9899761270033652E-01  12   5  11   2
 -0.3838567224775506E-01  12   5  11   3
 -0.7482402184654753E-02  12   5  11   4
  0.1540219879198808E+00  12   5  12   5
 -0.5222316851499205E-01  12   6  10   1
  0.3070952709689311E-01  12   6  10   2
 -0.3838567224679382E-01  12   6  10   3
 -0.7482402184653006E-02  12   6  10   4
  0.3130309464927621E-01  12   6  11   1
 -0.2946197075079899E-01  12   6  11   2
  0.2011489456682983E-01  12   6  11   3
  0.5205659793060280E-02  12   6  11   4
 -0.5194904111648584E-01  12   6  12   5
  0.3043419409950179E-01  12   6  12   6
  0.1532321594077272E+00  13   7  10   1
 -0.3057945799147364E-01  13   7  10   2
  0.1140185117247717E+00  13   7  10   3
 -0.2211170536838387E-01  13   7  10   4
 -0.4445599472804467E-01  13   7  11   1
  0.9899761270033652E-01  13   7  11   2
 -0.3838566081439857E-01  13   7  11   3
  0.7482460838984946E-02  13   7  11   4
  0.1097987514117123E+00  13   7  12   5
 -0.3698417810785682E-01  13   7  12   6
  0.1540219879198808E+00  13   7  13   7
 -0.5222316851499201E-01  13   8  10   1
  0.3070952709689297E-01  13   8  10   2
 -0.3838566081343735E-01  13   8  10   3
  0.7482460838983198E-02  13   8  10   4
  0.3130309464927616E-01  13   8  11   1
 -0.2946197075079881E-01  13   8  11   2
  0.2011488661241822E-01  13   8  11   3
 -0.5205690529153749E-02  13   8  11   4
 -0.3698417810785688E-01  13   8  12   5
  0.2002284381546977E-01  13   8  12   6
 -0.5194904111648584E-01  13   8  13   7
  0.3043419409950179E-01  13   8  13   8
  0.5167563009897107E-01  10   5  10   5
 -0.1618352515519686E-01  10   6  10   5
  0.2125621144363363E-01  10   6  10   6
 -0.1618352515520235E-01  11   5  10   5
  0.2125621147822501E-01  11   5  10   6
  0.2125621144363641E-01  11   5  11   5
  0.3397791109328262E-01  11   6  10   5
 -0.5503844836864990E-02  11   6  10   6
 -0.5503844836869277E-02  11   6  11   5
  0.3296867246163566E-01  11   6  11   6
  0.7085890285695221E-01  12   1  10   5
 -0.2142337332396411E-01  12   1  10   6
 -0.2142337332397115E-01  12   1  11   5
  0.3930655295117912E-01  12   1  11   6
  0.1051463042644497E+00  12   1  12   1
 -0.1933351624098311E-01  12   2  10   5
  0.1959649320952366E-01  12   2  10   6
  0.1959649320952538E-01  12   2  11   5
 -0.9408069247260837E-02  12   2  11   6
 -0.2742733998259920E-01  12   2  12   1
  0.2250442505047459E-01  12   2  12   2
  0.2429662117552242E-01  12   3  10   5
 -0.6904086304349173E-02  12   3  10   6
 -0.6904086304351555E-02  12   3  11   5
  0.1290671279531565E-01  12   3  11   6
  0.3676634878568352E-01  12   3  12   1
 -0.8997413487231647E-02  12   3  12   2
  0.4285713196317954E-01  12   3  12   3
  0.4208290807295704E-01  12   4  10   5
 -0.1195820713925472E-01  12   4  10   6
 -0.1195820713925884E-01  12   4  11   5
  0.2235504284857955E-01  12   4  11   6
  0.6368107174461539E-01  12   4  12   1
 -0.1558394980461230E-01  12   4  12   2
  0.1381037374406844E-01  12   4  12   3
  0.5880392170901481E-01  12   4  12   4
  0.4208292663588985E-01  13   9  10   5
 -0.1195821241406595E-01  13   9  10   6
 -0.1195821241407008E-01  13   9  11   5
  0.2235505270947505E-01  13   9  11   6
  0.6368109983458140E-01  13   9  12   1
 -0.1558395668185918E-01  13   9  12   2
  0.1381037984587749E-01  13   9  12   3
  0.2392023737206523E-01  13   9  12   4
  0.5880394281162775E-01  13   9  13   9
  0.5167563009897107E-01  10   7  10   7
 -0.1618352515519686E-01  10   8  10   7
  0.2125621144363363E-01  10   8  10   8
 -0.1618352515520235E-01  11   7  10   7
  0.2125621147822501E-01  11   7  10   8
  0.2125621144363641E-01  11   7  11   7
  0.3397791109328262E-01  11   8  10   7
 -0.5503844836864990E-02  11   8  10   8
 -0.5503844836869277E-02  11   8  11   7
  0.3296867246163566E-01  11   8  11   8
  0.4208292663588985E-01  12   9  10   7
 -0.1195821241406595E-01  12   9  10   8
 -0.1195821241407008E-01  12   9  11   7
  0.2235505270947505E-01  12   9  11   8
  0.5880394281162775E-01  12   9  12   9
  0.7085890285695221E-01  13   1  10   7
 -0.2142337332396410E-01  13   1  10   8
 -0.2142337332397115E-01  13   1  11   7
  0.3930655295117911E-01  13   1  11   8
  0.6368109983458140E-01  13   1  12   9
  0.1051463042644497E+00  13   1  13   1
 -0.1933351624098311E-01  13   2  10   7
  0.1959649320952362E-01  13   2  10   8
  0.1959649320952538E-01  13   2  11   7
 -0.9408069247260778E-02  13   2  11   8
 -0.1558395668185919E-01  13   2  12   9
 -0.2742733998259920E-01  13   2  13   1
  0.2250442505047459E-01  13   2  13   2
  0.2429655687167940E-01  13   3  10   7
 -0.6904068031879164E-02  13   3  10   8
 -0.6904068031881543E-02  13   3  11   7
  0.1290667863619421E-01  13   3  11   8
  0.1381034329509573E-01  13   3  12   9
  0.3676625147925135E-01  13   3  13   1
 -0.8997389674526948E-02  13   3  13   2
  0.4285708975797221E-01  13   3  13   3
 -0.4208294519879812E-01  13   4  10   7
  0.1195821768887021E-01  13   4  10   8
  0.1195821768887434E-01  13   4  11   7
 -0.2235506257035752E-01  13   4  11   8
 -0.2392025847466890E-01  13   4  12   9
 -0.6368112792451019E-01  13   4  13   1
  0.1558396355288375E-01  13   4  13   2
 -0.1381034937688060E-01  13   4  13   3
  0.5880396391422212E-01  13   4  13   4
  0.2211161823855278E-01  10   9  10   9
 -0.7482431505930741E-02  11   9  10   9
  0.5205675168626404E-02  11   9  11   9
  0.2211161825670215E-01  12   7  10   9
 -0.7482431511822034E-02  12   7  11   9
  0.2211161823855374E-01  12   7  12   7
 -0.7482431511820290E-02  12   8  10   9
  0.5205675161108543E-02  12   8  11   9
 -0.7482431505929657E-02  12   8  12   7
  0.5205675168625447E-02  12   8  12   8
  0.2211161825670215E-01  13   5  10   9
 -0.7482431511822034E-02  13   5  11   9
  0.2211161825408428E-01  13   5  12   7
 -0.7482431509726124E-02  13   5  12   8
  0.2211161823855374E-01  13   5  13   5
 -0.7482431511820290E-02  13   6  10   9
  0.5205675161108543E-02  13   6  11   9
 -0.7482431509726130E-02  13   6  12   7
  0.5205675152215218E-02  13   6  12   8
 -0.7482431505929657E-02  13   6  13   5
  0.5205675168625447E-02  13   6  13   6
 -0.8302432839040030E+01   1   1   0   0
  0.1430835376582049E+01   2   1   0   0
 -0.4035836555911277E+01   2   2   0   0
 -0.4405838635796206E-10   3   1   0   0
  0.2860629392711107E-10   3   2   0   0
 -0.2400324983940743E+01   3   3   0   0
  0.3273754003550975E-16   4   1   0   0
 -0.2093844083223201E-16   4   2   0   0
  0.4269225942144031E-19   4   3   0   0
 -0.2400324983940703E+01   4   4   0   0
 -0.7307433768759871E+01   5   5   0   0
  0.1730346227981143E+01   6   5   0   0
 -0.4287388315489503E+01   6   6   0   0
 -0.7307433768759871E+01   7   7   0   0
  0.1730346227981143E+01   8   7   0   0
 -0.4287388315489503E+01   8   8   0   0
 -0.2400324983940706E+01   9   9   0   0
 -0.7307433768759543E+01  10  10   0   0
  0.1730346227981246E+01  11  10   0   0
 -0.4287388315489679E+01  11  11   0   0
 -0.2400324983940736E+01  12  12   0   0
 -0.2400324983940736E+01  13  13   0   0
 -0.9384895239526651E+02   0   0   0   0
