 &FCI NORB=  3,NELEC=  2,MS2= 0,
  ORBSYM=1,1,1,
  ISYM=1,
 /
  0.1026864625361508E+01   1   1   1   1
 -0.2891832495942361E-20   2   1   1   1
  0.8144195031091880E-41   2   1   2   1
  0.1000000000007930E-05   2   2   1   1
  0.9767187081287743E-25   2   2   2   1
  0.3568240000000000E-04   2   2   2   2
 -0.3164468354447078E+00   3   1   1   1
  0.8911711537994380E-21   3   1   2   1
 -0.5435853558002773E-10   3   1   2   2
  0.2275051584332952E+00   3   1   3   1
  0.8911711538966000E-21   3   2   1   1
 -0.2509698111958439E-41   3   2   2   1
  0.1530877138244216E-30   3   2   2   2
 -0.6406954087047674E-21   3   2   3   1
  0.1804313403538608E-41   3   2   3   2
  0.8575924296278125E+00   3   3   1   1
 -0.2415131574026930E-20   3   3   2   1
  0.1000210892318483E-05   3   3   2   2
 -0.2551952960425874E+00   3   3   3   1
  0.7186758120730811E-21   3   3   3   2
  0.7654947267548926E+00   3   3   3   3
 -0.1941012551302123E+01   1   1   0   0
  0.5466234515425372E-20   2   1   0   0
 -0.1998500000000000E-05   2   2   0   0
  0.3164468354502705E+00   3   1   0   0
 -0.8911711539803701E-21   3   2   0   0
 -0.9023799659369924E-01   3   3   0   0
  0.0000000000000000E+00   0   0   0   0
