&FCI NORB= 2, NELEC= 1, MS2= 1, ORBSYM= 1,1, ISYM= 1,NSTATE=2,
VIBRONIC=1, NMODAL=3,
/
0.5   1   1   0   0
0.5   2   2   0   0
