&FCI NORB= 2, NELEC= 1, MS2= 1, ORBSYM= 1,1, ISYM= 1,NSTATE=2,
VIBRONIC=1, INC_D1=1, NMODE=2, NMODAL=3, VIB_EXC_LVL=2,
FREQ=0.5,0.5,
/
1.   1   2   0   0
1.   2   1   0   0
