 &FCI NORB=  4,NELEC=  4,MS2= 0,
  ORBSYM=1,1,5,5,
  ISYM=1,
 /
  0.5134823124175996E+00   1   1   1   1
 -0.1582234176629495E+00   2   1   1   1
  0.1137525792421152E+00   2   1   2   1
  0.4288462148393735E+00   2   2   1   1
 -0.1275976481350348E+00   2   2   2   1
  0.3827973635896614E+00   2   2   2   2
  0.5134823124175996E+00   3   3   1   1
 -0.1582234176629493E+00   3   3   2   1
  0.4288462148393732E+00   3   3   2   2
  0.5134823124175997E+00   3   3   3   3
 -0.1582234176629494E+00   4   3   1   1
  0.1137525792421147E+00   4   3   2   1
 -0.1275976481350330E+00   4   3   2   2
 -0.1582234176629494E+00   4   3   3   3
  0.1137525792421146E+00   4   3   4   3
  0.4288462148393737E+00   4   4   1   1
 -0.1275976481350352E+00   4   4   2   1
  0.3827973635896623E+00   4   4   2   2
  0.4288462148393736E+00   4   4   3   3
 -0.1275976481350347E+00   4   4   4   3
  0.3827973635896614E+00   4   4   4   4
  0.5133823124175995E+00   3   1   3   1
 -0.1582234176629495E+00   3   2   3   1
  0.1137525792421153E+00   3   2   3   2
 -0.1582234176629496E+00   4   1   3   1
  0.1137525792421156E+00   4   1   3   2
  0.1137525792421157E+00   4   1   4   1
  0.4287462148393739E+00   4   2   3   1
 -0.1275976481350361E+00   4   2   3   2
 -0.1275976481350362E+00   4   2   4   1
  0.3826973635896680E+00   4   2   4   2
 -0.1941212551038969E+01   1   1   0   0
  0.3164468362198134E+00   2   1   0   0
 -0.9043799685685211E-01   2   2   0   0
 -0.1941212551038969E+01   3   3   0   0
  0.3164468362198138E+00   4   3   0   0
 -0.9043799685685211E-01   4   4   0   0
  0.4000000000000000E-03   0   0   0   0
