 &FCI NORB=  4,NELEC=  4,MS2= 0,
  ORBSYM=1,1,5,5,
  ISYM=1,
 /
 -0.1941212551038969E+01   1   1   0   0
  0.3164468362198134E+00   2   1   0   0
 -0.9043799685685211E-01   2   2   0   0
 -0.1941212551038969E+01   3   3   0   0
  0.3164468362198138E+00   4   3   0   0
 -0.9043799685685211E-01   4   4   0   0
  0.4000000000000000E-03   0   0   0   0
