&FCI NORB=101,
ORBSYM=1,1,1,1,1,1,1,1,1,1,1,1,1,1,1,1,1,1,1,1,1,1,1,1,1,1,1,1,1,1,1,1,1,1,1,1,1,1,1,1,1,1,1,1,1,1,1,1,1,1,1,1,1,1,1,1,1,1,1,1,1,1,1,1,1,1,1,1,1,1,1,1,1,1,1,1,1,1,1,1,1,1,1,1,1,1,1,1,1,1,1,1,1,1,1,1,1,1,1,1,1,
ISYM=1,
/
1.75053094583844e-03       1    1    1 0
-2.98960968910894e-04       1    2    1 0
5.17057530979494e-03       1    2    2 0
-2.35719647676276e-03       1    3    1 0
-8.38652945653636e-04       1    3    2 0
8.47837488803897e-03       1    3    3 0
-7.04605715027252e-04       1    4    1 0
3.92211604586850e-03       1    4    2 0
1.52866233731139e-03       1    4    3 0
1.16704926523188e-02       1    4    4 0
1.78867700934248e-04       1    5    1 0
-1.37679190565605e-03       1    5    2 0
5.31756588436207e-03       1    5    3 0
-2.33545704310131e-03       1    5    4 0
1.47427287983596e-02       1    5    5 0
-4.54600152022840e-05       1    6    1 0
3.94473880848012e-04       1    6    2 0
-2.12533017661092e-03       1    6    3 0
-6.56593158973791e-03       1    6    4 0
-3.23915823252044e-03       1    6    5 0
1.76899362595805e-02       1    6    6 0
1.19932602432596e-05       1    7    1 0
-1.10725726137112e-04       1    7    2 0
6.73847495140853e-04       1    7    3 0
2.93219509594923e-03       1    7    4 0
-7.67033996354538e-03       1    7    5 0
-4.22622832312930e-03       1    7    6 0
2.05055523781877e-02       1    7    7 0
-3.32170641916068e-06       1    8    1 0
3.17996206412608e-05       1    8    2 0
-2.06114002455509e-04       1    8    3 0
-1.01515119388872e-03       1    8    4 0
3.78079155616375e-03       1    8    5 0
-8.62867771135535e-03       1    8    6 0
-5.28693840630449e-03       1    8    7 0
2.31810706379317e-02       1    8    8 0
9.68861399669772e-07       1    9    1 0
-9.49494199553070e-06       1    9    2 0
6.38261878387919e-05       1    9    3 0
3.35142480640785e-04       1    9    4 0
-1.41592730924663e-03       1    9    5 0
4.65679982872368e-03       1    9    6 0
-9.43569399236483e-03       1    9    7 0
-6.41415247396517e-03       1    9    8 0
2.57051413970861e-02       1    9    9 0
-2.98869729969564e-07       1   10    1 0
2.96678148628683e-06       1   10    2 0
-2.03867010864469e-05       1   10    3 0
-1.11110036905433e-04       1   10    4 0
5.01067948391823e-04       1   10    5 0
-1.87378499251299e-03       1   10    6 0
5.54732588752806e-03       1   10    7 0
-1.00828952632113e-02       1   10    8 0
-7.60298400020615e-03       1   10    9 0
2.80618983005422e-02       1   10   10 0
-9.88688620472602e-08       1   11    1 0
9.71480317007010e-07       1   11    2 0
-6.76998737832240e-06       1   11    3 0
-3.77826275167516e-05       1   11    4 0
1.76936705209030e-04       1   11    5 0
-7.07217236567680e-04       1   11    6 0
2.38661004441386e-03       1   11    7 0
-6.44013967683963e-03       1   11    8 0
1.05572677222973e-02       1   11    9 0
8.85080253979428e-03       1   11   10 0
3.02286798303861e-02       1   11   11 0
-3.51527819258976e-08       1   12    1 0
3.31788720957282e-07       1   12    2 0
-2.34833735031526e-06       1   12    3 0
-1.32997186900565e-05       1   12    4 0
6.38134621731963e-05       1   12    5 0
-2.65040450848613e-04       1   12    6 0
9.57319491979240e-04       1   12    7 0
-2.95265707419324e-03       1   12    8 0
7.32270775468380e-03       1   12    9 0
-1.08387006334536e-02       1   12   10 0
1.01575152284994e-02       1   12   11 0
3.21715645816600e-02       1   12   12 0
-1.20024605984482e-08       1   13    1 0
1.17798598793072e-07       1   13    2 0
-8.52013441486964e-07       1   13    3 0
-4.87290351203850e-06       1   13    4 0
2.37652942913176e-05       1   13    5 0
-1.01143199420986e-04       1   13    6 0
3.79884439880496e-04       1   13    7 0
-1.25599241888579e-03       1   13    8 0
3.57090197328048e-03       1   13    9 0
-8.18079181317771e-03       1   13   10 0
-1.08959400366187e-02       1   13   11 0
1.15254033767245e-02       1   13   12 0
3.38403770982303e-02       1   13   13 0
-2.31105904165558e-09       1   14    1 0
4.40928742000880e-08       1   14    2 0
-3.21876098270734e-07       1   14    3 0
-1.86814408222574e-06       1   14    4 0
9.19999664688348e-06       1   14    5 0
-3.97976052963652e-05       1   14    6 0
1.53234346516914e-04       1   14    7 0
-5.27217423332618e-04       1   14    8 0
1.60938521496277e-03       1   14    9 0
-4.24116739212714e-03       1   14   10 0
-8.99576264744671e-03       1   14   11 0
-1.06810994170869e-02       1   14   12 0
1.29569702553295e-02       1   14   13 0
3.51641177889678e-02       1   14   14 0
1.18779997652525e-09       1   15    1 0
1.76053040429942e-08       1   15    2 0
-1.26645941989252e-07       1   15    3 0
-7.52802972031539e-07       1   15    4 0
3.72219960756963e-06       1   15    5 0
-1.62796783632325e-05       1   15    6 0
6.37268798087075e-05       1   15    7 0
-2.24837912799926e-04       1   15    8 0
7.14940432049362e-04       1   15    9 0
-2.02615411593620e-03       1   15   10 0
-4.96437612704828e-03       1   15   11 0
-9.73968360575553e-03       1   15   12 0
-1.01264891906398e-02       1   15   13 0
1.44469729085198e-02       1   15   14 0
3.60597814388691e-02       1   15   15 0
1.16670393362561e-09       1   16    1 0
7.12992191362443e-09       1   16    2 0
-5.36280011591267e-08       1   16    3 0
-3.18899311008471e-07       1   16    4 0
1.58328067742534e-06       1   16    5 0
-6.97027281581648e-06       1   16    6 0
2.75800366476528e-05       1   16    7 0
-9.89984379116578e-05       1   16    8 0
3.22871979185670e-04       1   16    9 0
-9.54484730688350e-04       1   16   10 0
-2.51827796884661e-03       1   16   11 0
-5.74216721828761e-03       1   16   12 0
-1.03684798956999e-02       1   16   13 0
-9.15742692920313e-03       1   16   14 0
1.59629224400150e-02       1   16   15 0
3.64794157745644e-02       1   16   16 0
3.22270552672791e-10       1   17    1 0
-2.77468369528381e-09       1   17    2 0
2.59432158683797e-08       1   17    3 0
1.41715059152039e-07       1   17    4 0
-7.12092181149111e-07       1   17    5 0
3.13847926110999e-06       1   17    6 0
-1.25164475426364e-05       1   17    7 0
4.54480005280281e-05       1   17    8 0
-1.50903919934633e-04       1   17    9 0
4.57475243465894e-04       1   17   10 0
1.26193770042912e-03       1   17   11 0
3.10039437777842e-03       1   17   12 0
6.57383472685811e-03       1   17   13 0
1.08148711828398e-02       1   17   14 0
7.74494451170964e-03       1   17   15 0
-1.74222839430732e-02       1   17   16 0
3.65015565821514e-02       1   17   17 0
1.73032568403287e-09       1   18    1 0
-1.43744695198680e-09       1   18    2 0
1.43306515928590e-08       1   18    3 0
6.66546144797135e-08       1   18    4 0
-3.38083092820240e-07       1   18    5 0
1.48856341243639e-06       1   18    6 0
-5.97767662468538e-06       1   18    7 0
2.18943499675278e-05       1   18    8 0
-7.35436896935299e-05       1   18    9 0
2.27124852022056e-04       1   18   10 0
6.42531549290806e-04       1   18   11 0
1.65616285529921e-03       1   18   12 0
3.78278936500219e-03       1   18   13 0
7.44170838598316e-03       1   18   14 0
1.09887622935049e-02       1   18   15 0
5.98921738106922e-03       1   18   16 0
1.87085089550822e-02       1   18   17 0
3.63529497308723e-02       1   18   18 0
2.34784054183064e-09       1   19    1 0
-1.64437995044672e-09       1   19    2 0
8.17489548340521e-09       1   19    3 0
3.39484859358187e-08       1   19    4 0
-1.66805902771929e-07       1   19    5 0
7.41184785626433e-07       1   19    6 0
-3.00005746868642e-06       1   19    7 0
1.10603198534490e-05       1   19    8 0
-3.74428466980716e-05       1   19    9 0
1.17136713483298e-04       1   19   10 0
3.37548978813876e-04       1   19   11 0
8.93614970857815e-04       1   19   12 0
2.14936206092825e-03       1   19   13 0
4.55475181381569e-03       1   19   14 0
8.28162402655131e-03       1   19   15 0
1.08039187325579e-02       1   19   16 0
-4.12517213260321e-03       1   19   17 0
1.97541992364892e-02       1   19   18 0
3.62188119746156e-02       1   19   19 0
2.14169622062850e-09       1   20    1 0
-2.29527545965725e-09       1   20    2 0
4.23379462461404e-09       1   20    3 0
1.87616636386147e-08       1   20    4 0
-8.34190168696888e-08       1   20    5 0
3.85264150388376e-07       1   20    6 0
-1.57515527098157e-06       1   20    7 0
5.82677795576419e-06       1   20    8 0
-1.98595463651236e-05       1   20    9 0
6.26108331645853e-05       1   20   10 0
1.83116673434363e-04       1   20   11 0
4.93223699213002e-04       1   20   12 0
1.22379711533286e-03       1   20   13 0
2.73495906277095e-03       1   20   14 0
5.37460936876932e-03       1   20   15 0
8.97986922365271e-03       1   20   16 0
-1.02503790425672e-02       1   20   17 0
-2.36758579014413e-03       1   20   18 0
2.05891557714362e-02       1   20   19 0
3.61034961411499e-02       1   20   20 0
1.41066576866045e-09       1   21    1 0
-2.62913913105747e-09       1   21    2 0
1.71747349003760e-09       1   21    3 0
1.04328586942184e-08       1   21    4 0
-4.15505450870416e-08       1   21    5 0
2.08589820484748e-07       1   21    6 0
-8.60886468660838e-07       1   21    7 0
3.18801791937444e-06       1   21    8 0
-1.09252647573138e-05       1   21    9 0
3.46475155822973e-05       1   21   10 0
1.02253168967954e-04       1   21   11 0
2.79814765101078e-04       1   21   12 0
7.05659176792134e-04       1   21   13 0
1.63830641401958e-03       1   21   14 0
3.38459071160033e-03       1   21   15 0
6.17989855859965e-03       1   21   16 0
-9.43213431752784e-03       1   21   17 0
-9.42591552770498e-03       1   21   18 0
-7.77021135458788e-04       1   21   19 0
2.12701516546979e-02       1   21   20 0
3.59469266311672e-02       1   21   21 0
5.12584503497712e-10       1   22    1 0
-2.32226764651713e-09       1   22    2 0
3.07449289719238e-10       1   22    3 0
4.74909928569727e-09       1   22    4 0
-2.09274363536538e-08       1   22    5 0
1.17780005625952e-07       1   22    6 0
-4.87311234808082e-07       1   22    7 0
1.80801560858792e-06       1   22    8 0
-6.21360256628795e-06       1   22    9 0
1.98186709252112e-05       1   22   10 0
5.87763323733665e-05       1   22   11 0
1.62802109950268e-04       1   22   12 0
4.16286037506733e-04       1   22   13 0
9.85055694673790e-04       1   22   14 0
2.12563293870019e-03       1   22   15 0
4.05581592364583e-03       1   22   16 0
-6.90461486637643e-03       1   22   17 0
-9.60369072414524e-03       1   22   18 0
-8.43889480195672e-03       1   22   19 0
6.83383273136235e-04       1   22   20 0
2.18275933844490e-02       1   22   21 0
3.56900778293347e-02       1   22   22 0
-2.83829426845453e-10       1   23    1 0
-1.43704858414242e-09       1   23    2 0
-3.80829569836238e-10       1   23    3 0
5.28825413763349e-10       1   23    4 0
-1.15303799429882e-08       1   23    5 0
6.94308076006415e-08       1   23    6 0
-2.84676328450524e-07       1   23    7 0
1.06170451965456e-06       1   23    8 0
-3.65023388274304e-06       1   23    9 0
1.16923705694905e-05       1   23   10 0
3.48324905309602e-05       1   23   11 0
9.70241340121492e-05       1   23   12 0
2.51774879079686e-04       1   23   13 0
6.01613935077141e-04       1   23   14 0
1.33450565373163e-03       1   23   15 0
2.65436381580626e-03       1   23   16 0
-4.71203089574768e-03       1   23   17 0
-7.50338484517793e-03       1   23   18 0
-9.51482088947764e-03       1   23   19 0
-7.33992781905641e-03       1   23   20 0
2.06151372640640e-03       1   23   21 0
2.22727775394376e-02       1   23   22 0
3.52855961854865e-02       1   23   23 0
-8.44879762222667e-10       1   24    1 0
-2.51094640733264e-10       1   24    2 0
-7.52055308772844e-10       1   24    3 0
-2.25839023389966e-09       1   24    4 0
-7.78351140139093e-09       1   24    5 0
4.26693495067159e-08       1   24    6 0
-1.71734927140607e-07       1   24    7 0
6.45503935938644e-07       1   24    8 0
-2.21803109063001e-06       1   24    9 0
7.11495694580586e-06       1   24   10 0
2.12964786863960e-05       1   24   11 0
5.94411614921447e-05       1   24   12 0
1.55849208696494e-04       1   24   13 0
3.76849512229196e-04       1   24   14 0
8.44536869595230e-04       1   24   15 0
1.74220716544886e-03       1   24   16 0
-3.19341378456708e-03       1   24   17 0
-5.34322809306455e-03       1   24   18 0
-7.95965083545313e-03       1   24   19 0
-9.19604450311484e-03       1   24   20 0
-6.15997834559886e-03       1   24   21 0
3.38719726138926e-03       1   24   22 0
2.26112598365006e-02       1   24   23 0
3.47932197685827e-02       1   24   24 0
-1.16077460618930e-09       1   25    1 0
9.47028517113205e-10       1   25    2 0
-1.09130490097310e-09       1   25    3 0
-3.55073902149111e-09       1   25    4 0
-6.50398108961960e-09       1   25    5 0
2.73628095833131e-08       1   25    6 0
-1.07947911921624e-07       1   25    7 0
4.08241500341956e-07       1   25    8 0
-1.40234033138065e-06       1   25    9 0
4.49301922206501e-06       1   25   10 0
1.34835779652226e-05       1   25   11 0
3.77449735704136e-05       1   25   12 0
9.92419528160215e-05       1   25   13 0
2.43478891180845e-04       1   25   14 0
5.48232906158896e-04       1   25   15 0
1.15368590459968e-03       1   25   16 0
-2.19403988431665e-03       1   25   17 0
-3.75704596242132e-03       1   25   18 0
-5.98217558465077e-03       1   25   19 0
-8.30850369673108e-03       1   25   20 0
-8.74764344851205e-03       1   25   21 0
-5.00052749802728e-03       1   25   22 0
4.60788303813673e-03       1   25   23 0
2.28932032333109e-02       1   25   24 0
3.48498947867783e-02       1   25   25 0
-1.29934150958450e-09       1   26    1 0
2.02869444329218e-09       1   26    2 0
-1.54529204526116e-09       1   26    3 0
-3.51538600605687e-09       1   26    4 0
-6.05443783502267e-09       1   26    5 0
1.83800845245371e-08       1   26    6 0
-7.15301359617348e-08       1   26    7 0
2.69932094136801e-07       1   26    8 0
-9.27364838091620e-07       1   26    9 0
2.96104326979891e-06       1   26   10 0
8.87417610172816e-06       1   26   11 0
2.49550594884183e-05       1   26   12 0
6.55218223392720e-05       1   26   13 0
1.62425389737865e-04       1   26   14 0
3.69502611117016e-04       1   26   15 0
7.80643749827032e-04       1   26   16 0
-1.53329140647500e-03       1   26   17 0
-2.70082501271214e-03       1   26   18 0
-4.40289520217046e-03       1   26   19 0
-6.68658621403451e-03       1   26   20 0
-8.67002628082834e-03       1   26   21 0
-8.41589028897928e-03       1   26   22 0
-4.16147058600238e-03       1   26   23 0
5.37567654613097e-03       1   26   24 0
2.32047411504250e-02       1   26   25 0
3.69163454444099e-02       1   26   26 0
1.29226788346689e-09       1   27    1 0
-2.92685676135339e-09       1   27    2 0
2.12810250490550e-09       1   27    3 0
2.18616462687166e-09       1   27    4 0
5.52467158272376e-09       1   27    5 0
-1.27566838976850e-08       1   27    6 0
4.93401148252831e-08       1   27    7 0
-1.82668044537405e-07       1   27    8 0
6.26749001475663e-07       1   27    9 0
-1.98741183096162e-06       1   27   10 0
-5.92564337636140e-06       1   27   11 0
-1.67042276341182e-05       1   27   12 0
-4.38799923145244e-05       1   27   13 0
-1.08823387709721e-04       1   27   14 0
-2.51777698755474e-04       1   27   15 0
-5.32063291997036e-04       1   27   16 0
1.06099235198524e-03       1   27   17 0
1.94102441325623e-03       1   27   18 0
3.22400043771606e-03       1   27   19 0
5.06414495244886e-03       1   27   20 0
7.35921113459904e-03       1   27   21 0
9.04374601392753e-03       1   27   22 0
8.38456869161978e-03       1   27   23 0
4.03237386320016e-03       1   27   24 0
-5.02725261371369e-03       1   27   25 0
-2.34849750458973e-02       1   27   26 0
4.11858410630561e-02       1   27   27 0
1.11654813218871e-09       1   28    1 0
-3.39795421382558e-09       1   28    2 0
2.61592969956316e-09       1   28    3 0
-3.64121239180117e-10       1   28    4 0
4.33623591742418e-09       1   28    5 0
-9.17866428222459e-09       1   28    6 0
3.49476202530288e-08       1   28    7 0
-1.23857846165800e-07       1   28    8 0
4.20595927262418e-07       1   28    9 0
-1.31580130743175e-06       1   28   10 0
-3.89360890369878e-06       1   28   11 0
-1.09138980943419e-05       1   28   12 0
-2.88148981136720e-05       1   28   13 0
-7.09347568426379e-05       1   28   14 0
-1.66094481456821e-04       1   28   15 0
-3.55214532820030e-04       1   28   16 0
7.05592966050987e-04       1   28   17 0
1.33078502148943e-03       1   28   18 0
2.28923709347040e-03       1   28   19 0
3.64368408315143e-03       1   28   20 0
5.54736993891996e-03       1   28   21 0
7.78575844197888e-03       1   28   22 0
9.29490942705519e-03       1   28   23 0
8.65387048000258e-03       1   28   24 0
4.74708580649520e-03       1   28   25 0
-3.54810264802558e-03       1   28   26 0
2.36192122420758e-02       1   28   27 0
4.62410648849928e-02       1   28   28 0
7.90107060603637e-10       1   29    1 0
-3.15980505774933e-09       1   29    2 0
2.54043389835859e-09       1   29    3 0
-3.32545545019596e-09       1   29    4 0
2.57494536710358e-09       1   29    5 0
-7.22811179847394e-09       1   29    6 0
2.58592953954280e-08       1   29    7 0
-8.59481171491126e-08       1   29    8 0
2.81181177531604e-07       1   29    9 0
-8.60162861399308e-07       1   29   10 0
-2.51528391523592e-06       1   29   11 0
-6.94437049779200e-06       1   29   12 0
-1.83505013103345e-05       1   29   13 0
-4.50606355157933e-05       1   29   14 0
-1.04749258255061e-04       1   29   15 0
-2.29128928623821e-04       1   29   16 0
4.54332871022596e-04       1   29   17 0
8.58768066889816e-04       1   29   18 0
1.53849072105044e-03       1   29   19 0
2.51968977708322e-03       1   29   20 0
3.87770239420774e-03       1   29   21 0
5.74415989378826e-03       1   29   22 0
7.87798763352833e-03       1   29   23 0
9.35898246401633e-03       1   29   24 0
9.17265789938297e-03       1   29   25 0
6.06523992830121e-03       1   29   26 0
1.66428558368676e-03       1   29   27 0
2.35530124968313e-02       1   29   28 0
5.12838240446814e-02       1   29   29 0
3.76329642929012e-10       1   30    1 0
-2.09714195740243e-09       1   30    2 0
1.42123337064162e-09       1   30    3 0
-5.28200423652718e-09       1   30    4 0
1.03931659578094e-09       1   30    5 0
-6.42753152556962e-09       1   30    6 0
2.05649700037344e-08       1   30    7 0
-6.36489980784681e-08       1   30    8 0
1.91768510207890e-07       1   30    9 0
-5.69001932703490e-07       1   30   10 0
-1.62064241069975e-06       1   30   11 0
-4.39241323922190e-06       1   30   12 0
-1.14008997960962e-05       1   30   13 0
-2.81811220792973e-05       1   30   14 0
-6.43556628317766e-05       1   30   15 0
-1.41543957924249e-04       1   30   16 0
2.86834135929083e-04       1   30   17 0
5.34605602285256e-04       1   30   18 0
9.69538277575882e-04       1   30   19 0
1.66020314243556e-03       1   30   20 0
2.61364844896722e-03       1   30   21 0
3.90458607677095e-03       1   30   22 0
5.64084827572297e-03       1   30   23 0
7.64523794973952e-03       1   30   24 0
9.25956689409340e-03       1   30   25 0
9.91024137365165e-03       1   30   26 0
-7.58827840225498e-03       1   30   27 0
-1.55094786518942e-04       1   30   28 0
2.33318648119925e-02       1   30   29 0
5.62077914840666e-02       1   30   30 0
5.91494296367158e-11       1   31    1 0
3.32263719011416e-10       1   31    2 0
8.13199096087469e-10       1   31    3 0
5.06605869510616e-09       1   31    4 0
-6.81601644367849e-10       1   31    5 0
6.16944328665369e-09       1   31    6 0
-1.79702487608099e-08       1   31    7 0
5.12944964384867e-08       1   31    8 0
-1.38419293212131e-07       1   31    9 0
3.93133875315551e-07       1   31   10 0
1.06635164638179e-06       1   31   11 0
2.82172435906858e-06       1   31   12 0
7.08497248455765e-06       1   31   13 0
1.73610327232268e-05       1   31   14 0
3.96089755102647e-05       1   31   15 0
8.47446636141705e-05       1   31   16 0
-1.75509911959360e-04       1   31   17 0
-3.30720475834859e-04       1   31   18 0
-5.87581756200617e-04       1   31   19 0
-1.02636758046043e-03       1   31   20 0
-1.69072251212267e-03       1   31   21 0
-2.57467236759194e-03       1   31   22 0
-3.73880172739819e-03       1   31   23 0
-5.27394400606292e-03       1   31   24 0
-7.18884894729082e-03       1   31   25 0
-9.16225166162946e-03       1   31   26 0
1.07362031002619e-02       1   31   27 0
9.00485803992376e-03       1   31   28 0
1.79620791098247e-03       1   31   29 0
-2.30219462365605e-02       1   31   30 0
6.10660685480971e-02       1   31   31 0
4.78302429405482e-10       1   32    1 0
-1.77916371212180e-09       1   32    2 0
3.48545236958060e-09       1   32    3 0
2.69741419865272e-09       1   32    4 0
-1.77250831906692e-09       1   32    5 0
6.09631153728913e-09       1   32    6 0
-1.71666836600212e-08       1   32    7 0
4.41679129913031e-08       1   32    8 0
-1.10216329742866e-07       1   32    9 0
2.90677222712176e-07       1   32   10 0
7.42132969544499e-07       1   32   11 0
1.87163867428028e-06       1   32   12 0
4.56175882804390e-06       1   32   13 0
1.06878481419725e-05       1   32   14 0
2.45206559244581e-05       1   32   15 0
5.12888761358440e-05       1   32   16 0
-1.03618957782256e-04       1   32   17 0
-2.01596529106161e-04       1   32   18 0
-3.57396098469265e-04       1   32   19 0
-6.09474342064809e-04       1   32   20 0
-1.02707637672440e-03       1   32   21 0
-1.63675957823737e-03       1   32   22 0
-2.42045678397209e-03       1   32   23 0
-3.42475309600916e-03       1   32   24 0
-4.75663283095936e-03       1   32   25 0
-6.74081723832538e-03       1   32   26 0
9.14839511357343e-03       1   32   27 0
1.14471620805048e-02       1   32   28 0
1.02205270401723e-02       1   32   29 0
3.26375552559158e-03       1   32   30 0
2.26685388792136e-02       1   32   31 0
6.59157379514148e-02       1   32   32 0
8.71058593278888e-10       1   33    1 0
-3.69043747071988e-09       1   33    2 0
5.29278307691019e-09       1   33    3 0
-3.47077519527107e-10       1   33    4 0
-3.48575096624213e-09       1   33    5 0
6.31229473872107e-09       1   33    6 0
-1.71173683482576e-08       1   33    7 0
3.98656822414434e-08       1   33    8 0
-9.77427180377477e-08       1   33    9 0
2.33185221841059e-07       1   33   10 0
5.61241423186763e-07       1   33   11 0
1.31741136396103e-06       1   33   12 0
3.09359838340071e-06       1   33   13 0
6.89416917427089e-06       1   33   14 0
1.51965700989425e-05       1   33   15 0
3.21049411857568e-05       1   33   16 0
-6.18500370704910e-05       1   33   17 0
-1.18670378277695e-04       1   33   18 0
-2.17776895887602e-04       1   33   19 0
-3.66772492835330e-04       1   33   20 0
-6.01008530527808e-04       1   33   21 0
-9.77196378970404e-04       1   33   22 0
-1.51304888802868e-03       1   33   23 0
-2.18096983449748e-03       1   33   24 0
-3.05236393064074e-03       1   33   25 0
-4.29014463887914e-03       1   33   26 0
6.42293943742729e-03       1   33   27 0
9.12660387128738e-03       1   33   28 0
1.19884230861907e-02       1   33   29 0
1.12502820011172e-02       1   33   30 0
-4.57684604999416e-03       1   33   31 0
2.23017504676762e-02       1   33   32 0
7.07999776637445e-02       1   33   33 0
-1.22201732901379e-09       1   34    1 0
4.74660112540051e-09       1   34    2 0
-5.02933353439185e-09       1   34    3 0
1.98863707412706e-09       1   34    4 0
4.43421700576622e-09       1   34    5 0
-7.04258507430761e-09       1   34    6 0
1.68740338984034e-08       1   34    7 0
-3.80577950376112e-08       1   34    8 0
9.26164217231206e-08       1   34    9 0
-2.04032112345157e-07       1   34   10 0
-4.60597569159941e-07       1   34   11 0
-1.01602916470094e-06       1   34   12 0
-2.22522690477068e-06       1   34   13 0
-4.81516086759040e-06       1   34   14 0
-9.84302197455592e-06       1   34   15 0
-2.03650441008472e-05       1   34   16 0
3.92353020873191e-05       1   34   17 0
7.04868696312185e-05       1   34   18 0
1.28783213955351e-04       1   34   19 0
2.24306462802963e-04       1   34   20 0
3.60901502029693e-04       1   34   21 0
5.67271119943641e-04       1   34   22 0
8.87594357836217e-04       1   34   23 0
1.34180637347818e-03       1   34   24 0
1.90878219111072e-03       1   34   25 0
2.74732043502357e-03       1   34   26 0
-3.97144293879645e-03       1   34   27 0
-6.17819179553719e-03       1   34   28 0
-9.06105594332387e-03       1   34   29 0
-1.23913774141397e-02       1   34   30 0
1.21232719322456e-02       1   34   31 0
5.74858359352834e-03       1   34   32 0
-2.19435229202886e-02       1   34   33 0
7.57516249620741e-02       1   34   34 0
-1.46045464216767e-09       1   35    1 0
4.35732038667061e-09       1   35    2 0
-2.51743550749546e-09       1   35    3 0
1.09326699538377e-09       1   35    4 0
3.85387929160843e-09       1   35    5 0
-8.00524401614892e-09       1   35    6 0
1.62683311860071e-08       1   35    7 0
-3.86178003656022e-08       1   35    8 0
8.93911044475775e-08       1   35    9 0
-1.91624354945487e-07       1   35   10 0
-4.05145861186144e-07       1   35   11 0
-8.55159270629949e-07       1   35   12 0
-1.74441127092564e-06       1   35   13 0
-3.58831234782001e-06       1   35   14 0
-7.05524069170526e-06       1   35   15 0
-1.33703109908506e-05       1   35   16 0
2.57794137246133e-05       1   35   17 0
4.54805771417235e-05       1   35   18 0
7.70039879693333e-05       1   35   19 0
1.33932521064872e-04       1   35   20 0
2.22634934652413e-04       1   35   21 0
3.43306905513772e-04       1   35   22 0
5.16499601130892e-04       1   35   23 0
7.73482128970093e-04       1   35   24 0
1.15962587547829e-03       1   35   25 0
1.67981632577873e-03       1   35   26 0
-2.55138176009215e-03       1   35   27 0
-3.75165385351232e-03       1   35   28 0
-5.97032780410433e-03       1   35   29 0
-8.96744942583695e-03       1   35   30 0
1.26914253721781e-02       1   35   31 0
1.28616138159025e-02       1   35   32 0
6.78653002613547e-03       1   35   33 0
2.16108303399706e-02       1   35   34 0
8.07959299180887e-02       1   35   35 0
-1.43302624648313e-09       1   36    1 0
2.29477791155762e-09       1   36    2 0
1.00806871608674e-09       1   36    3 0
-1.51037846696375e-09       1   36    4 0
2.34993068515395e-09       1   36    5 0
-8.31928794887178e-09       1   36    6 0
1.60629289665212e-08       1   36    7 0
-4.01546307372925e-08       1   36    8 0
8.67365236052526e-08       1   36    9 0
-1.86220517982485e-07       1   36   10 0
-3.77860847535241e-07       1   36   11 0
-7.62607460629519e-07       1   36   12 0
-1.50031522198138e-06       1   36   13 0
-2.85644726713096e-06       1   36   14 0
-5.47774327269420e-06       1   36   15 0
-9.79601583805744e-06       1   36   16 0
1.73706883245024e-05       1   36   17 0
3.10952153572362e-05       1   36   18 0
5.09462614842891e-05       1   36   19 0
8.15845122818789e-05       1   36   20 0
1.34747473318419e-04       1   36   21 0
2.14686339070436e-04       1   36   22 0
3.17907380851120e-04       1   36   23 0
4.59178011439591e-04       1   36   24 0
6.58030159896607e-04       1   36   25 0
1.01510401401751e-03       1   36   26 0
-1.52405436750699e-03       1   36   27 0
-2.42111908429766e-03       1   36   28 0
-3.59020391992631e-03       1   36   29 0
-5.79657988003214e-03       1   36   30 0
8.86345926636238e-03       1   36   31 0
1.29136158646490e-02       1   36   32 0
1.34808208668899e-02       1   36   33 0
-7.69545194488694e-03       1   36   34 0
2.13165210675572e-02       1   36   35 0
8.59523068534667e-02       1   36   36 0
9.46507782288417e-10       1   37    1 0
9.81920966396230e-10       1   37    2 0
-3.56396455143661e-09       1   37    3 0
3.56089384306157e-09       1   37    4 0
-1.35291754087230e-09       1   37    5 0
7.35012040649066e-09       1   37    6 0
-1.69201890173918e-08       1   37    7 0
4.07301516323982e-08       1   37    8 0
-8.54747182941228e-08       1   37    9 0
1.81948138458995e-07       1   37   10 0
3.65854386131338e-07       1   37   11 0
7.10505609654901e-07       1   37   12 0
1.35915441715361e-06       1   37   13 0
2.47656920227964e-06       1   37   14 0
4.45675395866525e-06       1   37   15 0
7.91048004564742e-06       1   37   16 0
-1.29820986020345e-05       1   37   17 0
-2.16987004571825e-05       1   37   18 0
-3.62673936275741e-05       1   37   19 0
-5.58824415668623e-05       1   37   20 0
-8.46267619737042e-05       1   37   21 0
-1.32186307725588e-04       1   37   22 0
-2.02472356105993e-04       1   37   23 0
-2.88183833706530e-04       1   37   24 0
-4.08774286025577e-04       1   37   25 0
-5.71642149839305e-04       1   37   26 0
9.24960806386105e-04       1   37   27 0
1.41890406586638e-03       1   37   28 0
2.32895599605058e-03       1   37   29 0
3.47335735435961e-03       1   37   30 0
-5.65781753595331e-03       1   37   31 0
-8.76023795990589e-03       1   37   32 0
-1.30750042170177e-02       1   37   33 0
1.39928331683620e-02       1   37   34 0
8.47984304915747e-03       1   37   35 0
-2.10691986026765e-02       1   37   36 0
9.12356035879761e-02       1   37   37 0
-9.75636018917936e-11       1   38    1 0
4.24472482922744e-09       1   38    2 0
-3.79310104931389e-09       1   38    3 0
3.19041449269179e-09       1   38    4 0
-1.69622978091919e-09       1   38    5 0
5.67068431323929e-09       1   38    6 0
-1.81947328983179e-08       1   38    7 0
3.97452366137274e-08       1   38    8 0
-8.55428338099081e-08       1   38    9 0
1.77920311006091e-07       1   38   10 0
3.58685228353451e-07       1   38   11 0
6.84449387176008e-07       1   38   12 0
1.26067858006441e-06       1   38   13 0
2.27185993402571e-06       1   38   14 0
3.87756856426221e-06       1   38   15 0